* AFTER DYNAMICS CRD
*  DATE:     2/26/26     13:17: 6      CREATED BY USER: rhayes1
*
      6425  EXT
         1         1  GLY       CAY            -1.3163872135       -5.5134711775       -4.0489889000  PROT      14              0.0000000000
         2         1  GLY       HY1            -0.6311838967       -4.6576716890       -3.8689207766  PROT      14              0.0000000000
         3         1  GLY       HY2            -2.1037324812       -5.7563268938       -3.3037175337  PROT      14              0.0000000000
         4         1  GLY       HY3            -1.9967721426       -5.1729769990       -4.8585943234  PROT      14              0.0000000000
         5         1  GLY       CY             -0.6271614728       -6.7807571510       -4.3704708226  PROT      14              0.0000000000
         6         1  GLY       OY             -1.0665171165       -7.5877925307       -5.1670808870  PROT      14              0.0000000000
         7         1  GLY       N               0.5626275830       -7.2011777320       -3.8767250278  PROT      14              0.0000000000
         8         1  GLY       HN              0.9219695212       -8.0957495909       -4.1309365917  PROT      14              0.0000000000
         9         1  GLY       CA              1.4026612732       -6.4166761222       -3.0527361783  PROT      14              0.0000000000
        10         1  GLY       HA1             1.7679901952       -5.6702174483       -3.7424711288  PROT      14              0.0000000000
        11         1  GLY       HA2             2.2095040673       -6.9852226405       -2.6143760102  PROT      14              0.0000000000
        12         1  GLY       C               0.6708942453       -5.6994703955       -1.8513370442  PROT      14              0.0000000000
        13         1  GLY       O              -0.4666125067       -6.0043578399       -1.4818142734  PROT      14              0.0000000000
        14         2  GLU       N               1.3287873496       -4.6820272444       -1.3566792893  PROT      15              0.0000000000
        15         2  GLU       HN              2.2768350478       -4.4176757786       -1.5158421706  PROT      15              0.0000000000
        16         2  GLU       CA              0.6902008613       -3.9014760175       -0.4222122339  PROT      15              0.0000000000
        17         2  GLU       HA             -0.3153689927       -3.7036212352       -0.7629215364  PROT      15              0.0000000000
        18         2  GLU       CB              0.7719945714       -4.5544053965        0.9835026734  PROT      15              0.0000000000
        19         2  GLU       HB1             1.8197728007       -4.5331157948        1.3523229739  PROT      15              0.0000000000
        20         2  GLU       HB2             0.6345897298       -5.6427740472        0.8077344488  PROT      15              0.0000000000
        21         2  GLU       CG             -0.2784701545       -4.0304975663        1.9985181359  PROT      15              0.0000000000
        22         2  GLU       HG1            -1.3472127162       -3.8551080435        1.7508313757  PROT      15              0.0000000000
        23         2  GLU       HG2             0.0863903866       -3.0728279497        2.4275479367  PROT      15              0.0000000000
        24         2  GLU       CD             -0.3931087896       -4.9809258852        3.1730320135  PROT      15              0.0000000000
        25         2  GLU       OE1            -1.2729517980       -5.9013141756        3.1360777086  PROT      15              0.0000000000
        26         2  GLU       OE2             0.3987936284       -4.7649784626        4.1643371278  PROT      15              0.0000000000
        27         2  GLU       C               1.4375900307       -2.5970815251       -0.4563231488  PROT      15              0.0000000000
        28         2  GLU       O               2.6802868177       -2.5533756976       -0.5125668055  PROT      15              0.0000000000
        29         3  THR       N               0.7210102071       -1.5151249020       -0.4502068578  PROT      16              0.0000000000
        30         3  THR       HN             -0.2733248260       -1.5534911696       -0.5121328611  PROT      16              0.0000000000
        31         3  THR       CA              1.3545008301       -0.2428507922       -0.4157127033  PROT      16              0.0000000000
        32         3  THR       HA              2.3422009571       -0.2203324806        0.0205686964  PROT      16              0.0000000000
        33         3  THR       CB              1.3910850477        0.4660479192       -1.7812869693  PROT      16              0.0000000000
        34         3  THR       HB              1.4655206061        1.5495290468       -1.5470886078  PROT      16              0.0000000000
        35         3  THR       OG1             0.2781656307        0.3468377072       -2.5962013468  PROT      16              0.0000000000
        36         3  THR       HG1            -0.5301907822        0.5963632358       -2.1424427055  PROT      16              0.0000000000
        37         3  THR       CG2             2.7580634350        0.0702278518       -2.4915224969  PROT      16              0.0000000000
        38         3  THR       HG21            2.8086068462       -1.0342854353       -2.6002268719  PROT      16              0.0000000000
        39         3  THR       HG22            3.6752259453        0.4790684446       -2.0161456166  PROT      16              0.0000000000
        40         3  THR       HG23            2.7031755804        0.4297913167       -3.5412950042  PROT      16              0.0000000000
        41         3  THR       C               0.3521625251        0.5041308105        0.4947588456  PROT      16              0.0000000000
        42         3  THR       O              -0.7513843288        0.0139708741        0.7949778956  PROT      16              0.0000000000
        43         4  THR       N               0.7962822171        1.6795194414        0.9241615558  PROT      17              0.0000000000
        44         4  THR       HN              1.7166479869        1.9850852788        0.6927197117  PROT      17              0.0000000000
        45         4  THR       CA              0.0763683475        2.6633100274        1.7424525732  PROT      17              0.0000000000
        46         4  THR       HA             -0.9582768084        2.3536274542        1.7449385452  PROT      17              0.0000000000
        47         4  THR       CB              0.6648613881        2.7305936456        3.1069106595  PROT      17              0.0000000000
        48         4  THR       HB              0.0207704861        3.2518371801        3.8470275196  PROT      17              0.0000000000
        49         4  THR       OG1             1.9022854772        3.3882848122        3.1938969281  PROT      17              0.0000000000
        50         4  THR       HG1             2.3668630557        3.1325782039        2.3936583460  PROT      17              0.0000000000
        51         4  THR       CG2             0.8071749920        1.3029136551        3.6704655729  PROT      17              0.0000000000
        52         4  THR       HG21            1.6841399627        0.7528632241        3.2671073667  PROT      17              0.0000000000
        53         4  THR       HG22           -0.1185074759        0.7125699348        3.5003857694  PROT      17              0.0000000000
        54         4  THR       HG23            1.0644250820        1.2856259271        4.7511340718  PROT      17              0.0000000000
        55         4  THR       C               0.1672236842        4.0208008214        1.0734796887  PROT      17              0.0000000000
        56         4  THR       O               1.1267168048        4.2811986271        0.3492008636  PROT      17              0.0000000000
        57         5  THR       N              -0.8530940836        4.8695501787        1.4168995749  PROT      18              0.0000000000
        58         5  THR       HN             -1.6368216824        4.5258414872        1.9284113975  PROT      18              0.0000000000
        59         5  THR       CA             -0.8006272999        6.2584205257        1.2583643175  PROT      18              0.0000000000
        60         5  THR       HA              0.2208061879        6.5729132551        1.1029036213  PROT      18              0.0000000000
        61         5  THR       CB             -1.5690074066        6.7194000496       -0.0326714425  PROT      18              0.0000000000
        62         5  THR       HB             -1.5287446718        5.9558559191       -0.8387112380  PROT      18              0.0000000000
        63         5  THR       OG1            -1.1620569069        7.9461163936       -0.5701692162  PROT      18              0.0000000000
        64         5  THR       HG1            -1.4636502130        8.6153484772        0.0485147743  PROT      18              0.0000000000
        65         5  THR       CG2            -3.1309210193        6.8308847090        0.2057708603  PROT      18              0.0000000000
        66         5  THR       HG21           -3.4549050110        7.6020666675        0.9369573201  PROT      18              0.0000000000
        67         5  THR       HG22           -3.5649013182        5.8759639684        0.5719789408  PROT      18              0.0000000000
        68         5  THR       HG23           -3.6577460481        6.9346347420       -0.7668607239  PROT      18              0.0000000000
        69         5  THR       C              -1.2032790316        7.0089890023        2.4764091707  PROT      18              0.0000000000
        70         5  THR       O              -1.4711803043        8.1850804499        2.4288542215  PROT      18              0.0000000000
        71         5  THR       NT             -1.3533714389        6.5081002867        3.6998594902  PROT      18              0.0000000000
        72         5  THR       HNT            -1.5438366813        7.2768054423        4.3055197361  PROT      18              0.0000000000
        73         5  THR       CAT            -1.7820849238        5.2209149638        4.1421447716  PROT      18              0.0000000000
        74         5  THR       HT1            -2.0817883208        4.4813440958        3.3691417419  PROT      18              0.0000000000
        75         5  THR       HT2            -2.6527637859        5.4075991508        4.8065153100  PROT      18              0.0000000000
        76         5  THR       HT3            -0.9942046873        4.8336893961        4.8230426874  PROT      18              0.0000000000
        77         6  TIP3      OH2            -9.0054648719      -10.0069930342      -12.8005375295  WT01      1               0.0000000000
        78         6  TIP3      H1             -9.5905662520      -10.6556329563      -13.1918870374  WT01      1               0.0000000000
        79         6  TIP3      H2             -8.1360461913      -10.2410907277      -13.1254086405  WT01      1               0.0000000000
        80         7  TIP3      OH2            17.7211285797       16.5084732765      -14.8288689654  WT01      2               0.0000000000
        81         7  TIP3      H1             16.8312264704       16.2536347577      -15.0725149711  WT01      2               0.0000000000
        82         7  TIP3      H2             18.1014409406       16.8539643546      -15.6364766883  WT01      2               0.0000000000
        83         8  TIP3      OH2           -11.6213849449       -3.1562194725      -10.3598634313  WT01      3               0.0000000000
        84         8  TIP3      H1            -12.5275480327       -2.9736556429      -10.6084005867  WT01      3               0.0000000000
        85         8  TIP3      H2            -11.1213283586       -3.0302765850      -11.1662836756  WT01      3               0.0000000000
        86         9  TIP3      OH2            14.9758151992        1.9379343663      -10.7018931007  WT01      4               0.0000000000
        87         9  TIP3      H1             15.2717954799        2.4041719824       -9.9200683314  WT01      4               0.0000000000
        88         9  TIP3      H2             15.7816629572        1.7153100394      -11.1680257117  WT01      4               0.0000000000
        89        10  TIP3      OH2            19.7168264961      -13.2259366221       -9.3465114577  WT01      5               0.0000000000
        90        10  TIP3      H1             19.0146532742      -13.7070148803       -9.7844021827  WT01      5               0.0000000000
        91        10  TIP3      H2             20.3400724546      -13.0231280628      -10.0441252295  WT01      5               0.0000000000
        92        11  TIP3      OH2             7.3367952682      -16.9129331888       14.7383125354  WT01      6               0.0000000000
        93        11  TIP3      H1              7.0445301504      -16.1292296967       14.2728861196  WT01      6               0.0000000000
        94        11  TIP3      H2              6.8650783040      -17.6317897816       14.3176462594  WT01      6               0.0000000000
        95        12  TIP3      OH2            -5.7952928415      -18.9679180493      -17.4487985700  WT01      7               0.0000000000
        96        12  TIP3      H1             -5.9915603528      -18.7638623302      -18.3631683741  WT01      7               0.0000000000
        97        12  TIP3      H2             -6.4251374350      -18.4505710921      -16.9469223652  WT01      7               0.0000000000
        98        13  TIP3      OH2            -6.9723548678       -2.0025985232      -11.6469318675  WT01      8               0.0000000000
        99        13  TIP3      H1             -7.2355464682       -2.7176862206      -12.2262517943  WT01      8               0.0000000000
       100        13  TIP3      H2             -6.2143101654       -1.6097647450      -12.0796923820  WT01      8               0.0000000000
       101        14  TIP3      OH2             7.0606226404      -15.3415450931      -14.1738485424  WT01      9               0.0000000000
       102        14  TIP3      H1              6.7949207311      -15.5162257671      -13.2710080423  WT01      9               0.0000000000
       103        14  TIP3      H2              7.3214843012      -16.1962451718      -14.5168802909  WT01      9               0.0000000000
       104        15  TIP3      OH2            -6.2223158048       17.0890582432       -3.0955160175  WT01      10              0.0000000000
       105        15  TIP3      H1             -6.8196876110       17.8369315102       -3.0874964940  WT01      10              0.0000000000
       106        15  TIP3      H2             -6.7588913370       16.3502263996       -2.8083818742  WT01      10              0.0000000000
       107        16  TIP3      OH2           -18.5295397843        8.4442860210      -15.6536499006  WT01      11              0.0000000000
       108        16  TIP3      H1            -19.2428614158        8.8797651929      -16.1202996106  WT01      11              0.0000000000
       109        16  TIP3      H2            -18.0250071062        9.1591450219      -15.2655066325  WT01      11              0.0000000000
       110        17  TIP3      OH2            16.6173637397        9.9675863568       14.5965544758  WT01      12              0.0000000000
       111        17  TIP3      H1             16.7662846768       10.8545605182       14.9241688872  WT01      12              0.0000000000
       112        17  TIP3      H2             17.2568891309        9.8613431939       13.8923162524  WT01      12              0.0000000000
       113        18  TIP3      OH2            13.2758369154        0.1999501804      -17.7183108175  WT01      13              0.0000000000
       114        18  TIP3      H1             12.5490090091       -0.2435062185      -17.2809329170  WT01      13              0.0000000000
       115        18  TIP3      H2             13.1134573247        1.1313823356      -17.5689829238  WT01      13              0.0000000000
       116        19  TIP3      OH2            -3.5396274180       18.3182971340      -18.9325993778  WT01      14              0.0000000000
       117        19  TIP3      H1             -4.2484948455       17.9195736442      -18.4278634469  WT01      14              0.0000000000
       118        19  TIP3      H2             -3.0305951347       17.5762792149      -19.2589846612  WT01      14              0.0000000000
       119        20  TIP3      OH2           -10.8629047028       19.7159249337       -4.1377994342  WT01      15              0.0000000000
       120        20  TIP3      H1            -11.3362228039       19.9175795371       -4.9449779814  WT01      15              0.0000000000
       121        20  TIP3      H2            -11.3384086709       18.9765217794       -3.7591032991  WT01      15              0.0000000000
       122        21  TIP3      OH2            -4.6551882311      -15.1458046192        6.4282669944  WT01      16              0.0000000000
       123        21  TIP3      H1             -5.4190332198      -14.6575766444        6.1210112559  WT01      16              0.0000000000
       124        21  TIP3      H2             -4.0318190178      -15.0971461872        5.7035084194  WT01      16              0.0000000000
       125        22  TIP3      OH2           -19.0286614039       -4.2875096602      -11.3863273403  WT01      17              0.0000000000
       126        22  TIP3      H1            -18.9591231454       -5.1865923679      -11.0653187323  WT01      17              0.0000000000
       127        22  TIP3      H2            -19.2551800531       -3.7729368975      -10.6116428984  WT01      17              0.0000000000
       128        23  TIP3      OH2           -15.7343250524        8.0443485820       -3.9130657145  WT01      18              0.0000000000
       129        23  TIP3      H1            -16.2444516834        8.3493940188       -3.1627658324  WT01      18              0.0000000000
       130        23  TIP3      H2            -16.0034944292        8.6138639165       -4.6337819842  WT01      18              0.0000000000
       131        24  TIP3      OH2            -6.4450662287       10.4041306235        0.0109534114  WT01      19              0.0000000000
       132        24  TIP3      H1             -7.2643421612       10.7869982836       -0.3027839190  WT01      19              0.0000000000
       133        24  TIP3      H2             -6.0051649558       11.1205272445        0.4686591714  WT01      19              0.0000000000
       134        25  TIP3      OH2            -7.9190197316       14.8997565159        0.3976764909  WT01      20              0.0000000000
       135        25  TIP3      H1             -7.9204208264       15.0893357003       -0.5405609954  WT01      20              0.0000000000
       136        25  TIP3      H2             -7.2552852489       14.2182717274        0.5038218186  WT01      20              0.0000000000
       137        26  TIP3      OH2            -5.4448507788       15.7632327658       15.2714190384  WT01      21              0.0000000000
       138        26  TIP3      H1             -4.6242926202       15.3471273875       15.0072743174  WT01      21              0.0000000000
       139        26  TIP3      H2             -5.5915284018       16.4433532359       14.6140351080  WT01      21              0.0000000000
       140        27  TIP3      OH2            -5.0347562994      -13.1596368438      -18.5035396070  WT01      22              0.0000000000
       141        27  TIP3      H1             -5.0447197695      -13.4545321454      -19.4141269457  WT01      22              0.0000000000
       142        27  TIP3      H2             -4.3860895287      -13.7195903073      -18.0770242493  WT01      22              0.0000000000
       143        28  TIP3      OH2            13.7700871402       -4.1209874078      -15.7825218271  WT01      23              0.0000000000
       144        28  TIP3      H1             12.8753534744       -4.3475788232      -15.5288688974  WT01      23              0.0000000000
       145        28  TIP3      H2             14.1930987750       -4.9634333247      -15.9485876122  WT01      23              0.0000000000
       146        29  TIP3      OH2           -13.3628315877      -17.5430990089      -12.3379336799  WT01      24              0.0000000000
       147        29  TIP3      H1            -13.9886559600      -18.2671538061      -12.3558310787  WT01      24              0.0000000000
       148        29  TIP3      H2            -12.9886600458      -17.5710129552      -11.4573382678  WT01      24              0.0000000000
       149        30  TIP3      OH2             6.0620480981      -11.6088833386       12.7549145033  WT01      25              0.0000000000
       150        30  TIP3      H1              5.3345554186      -11.1292326941       13.1510476521  WT01      25              0.0000000000
       151        30  TIP3      H2              5.6486709196      -12.3524139224       12.3161510245  WT01      25              0.0000000000
       152        31  TIP3      OH2           -18.6528230610      -11.8813705138       17.2442829160  WT01      26              0.0000000000
       153        31  TIP3      H1            -17.9555041661      -11.9489238802       16.5920446831  WT01      26              0.0000000000
       154        31  TIP3      H2            -18.3723563424      -12.4568101988       17.9559284737  WT01      26              0.0000000000
       155        32  TIP3      OH2            -9.6191998543       15.2010851282       -9.0861567370  WT01      27              0.0000000000
       156        32  TIP3      H1             -9.4936597545       14.3626684953       -9.5305991339  WT01      27              0.0000000000
       157        32  TIP3      H2            -10.3270648055       15.6258897649       -9.5706152415  WT01      27              0.0000000000
       158        33  TIP3      OH2            19.7609311842       -8.9396889392      -18.8175539511  WT01      28              0.0000000000
       159        33  TIP3      H1             19.3035046454       -9.7791326196      -18.7693141331  WT01      28              0.0000000000
       160        33  TIP3      H2             19.0658474174       -8.2840261316      -18.7610150182  WT01      28              0.0000000000
       161        34  TIP3      OH2           -12.2420291799      -13.3731425044       14.9143426816  WT01      29              0.0000000000
       162        34  TIP3      H1            -12.3191291062      -13.9609087873       14.1627987979  WT01      29              0.0000000000
       163        34  TIP3      H2            -11.8430036432      -12.5793003775       14.5582175496  WT01      29              0.0000000000
       164        35  TIP3      OH2             8.4155924566        0.4504675010       -2.0090357259  WT01      30              0.0000000000
       165        35  TIP3      H1              8.9351368177       -0.3517332557       -1.9563155802  WT01      30              0.0000000000
       166        35  TIP3      H2              7.5270420495        0.1489232550       -2.1981945292  WT01      30              0.0000000000
       167        36  TIP3      OH2           -18.6570955709       19.4109908428       14.6923843908  WT01      31              0.0000000000
       168        36  TIP3      H1            -18.4743876319       19.3626419891       15.6307404044  WT01      31              0.0000000000
       169        36  TIP3      H2            -19.5487620298       19.7549444478       14.6389180021  WT01      31              0.0000000000
       170        37  TIP3      OH2           -11.2822696785       11.5002994804      -17.5241584359  WT01      32              0.0000000000
       171        37  TIP3      H1            -10.5528127350       12.0916154010      -17.7098190421  WT01      32              0.0000000000
       172        37  TIP3      H2            -11.1323879321       11.2093486359      -16.6246503040  WT01      32              0.0000000000
       173        38  TIP3      OH2            11.2569880922       19.0303830031      -10.3566529874  WT01      33              0.0000000000
       174        38  TIP3      H1             12.1332816355       19.3944071705      -10.2308442338  WT01      33              0.0000000000
       175        38  TIP3      H2             11.3533840203       18.4199049630      -11.0875813003  WT01      33              0.0000000000
       176        39  TIP3      OH2             6.7650915825       -2.6622642576      -12.9518530108  WT01      34              0.0000000000
       177        39  TIP3      H1              6.5435306077       -1.7597708809      -13.1813050765  WT01      34              0.0000000000
       178        39  TIP3      H2              7.7190244350       -2.7002278365      -13.0211544585  WT01      34              0.0000000000
       179        40  TIP3      OH2            -9.5270017395       18.4398342301       12.7123183588  WT01      35              0.0000000000
       180        40  TIP3      H1            -10.2599949512       17.8280710794       12.6437719492  WT01      35              0.0000000000
       181        40  TIP3      H2             -9.6938255597       18.9246443595       13.5206257029  WT01      35              0.0000000000
       182        41  TIP3      OH2           -19.4967428035      -19.4296597931       17.4004837491  WT01      36              0.0000000000
       183        41  TIP3      H1            -19.4701582242      -18.5921743828       16.9377275945  WT01      36              0.0000000000
       184        41  TIP3      H2            -18.5870172786      -19.5966383629       17.6469577592  WT01      36              0.0000000000
       185        42  TIP3      OH2            16.3529296789       -3.4199225047       -7.8895098062  WT01      37              0.0000000000
       186        42  TIP3      H1             15.8203466241       -3.4387325958       -7.0943788225  WT01      37              0.0000000000
       187        42  TIP3      H2             16.3435416387       -2.5026731703       -8.1630008194  WT01      37              0.0000000000
       188        43  TIP3      OH2            15.2568421756      -13.6170909390      -10.3269179956  WT01      38              0.0000000000
       189        43  TIP3      H1             14.6645889561      -13.1070079642      -10.8794424691  WT01      38              0.0000000000
       190        43  TIP3      H2             15.9589321490      -13.0071042199      -10.1006047552  WT01      38              0.0000000000
       191        44  TIP3      OH2            13.9112910959       -9.3764346793      -10.8552124372  WT01      39              0.0000000000
       192        44  TIP3      H1             13.1816461310       -9.7999302073      -10.4029939348  WT01      39              0.0000000000
       193        44  TIP3      H2             13.8088744248       -9.6354470649      -11.7709936450  WT01      39              0.0000000000
       194        45  TIP3      OH2           -16.3052971214       17.7747809831      -12.9449873085  WT01      40              0.0000000000
       195        45  TIP3      H1            -16.6904943020       16.9059964506      -12.8306702967  WT01      40              0.0000000000
       196        45  TIP3      H2            -15.6656697361       17.6630540987      -13.6482836346  WT01      40              0.0000000000
       197        46  TIP3      OH2           -16.5540529664      -15.0182695812      -13.6470975942  WT01      41              0.0000000000
       198        46  TIP3      H1            -16.4338557794      -15.6001133434      -14.3975922869  WT01      41              0.0000000000
       199        46  TIP3      H2            -16.1033685215      -14.2109360868      -13.8947424426  WT01      41              0.0000000000
       200        47  TIP3      OH2           -18.0359701830       12.6468383188        4.4296980024  WT01      42              0.0000000000
       201        47  TIP3      H1            -17.2325180629       13.0573159834        4.1100034785  WT01      42              0.0000000000
       202        47  TIP3      H2            -17.7457765987       12.0686741566        5.1352089494  WT01      42              0.0000000000
       203        48  TIP3      OH2           -17.3353506631      -16.5693472416      -15.8486492325  WT01      43              0.0000000000
       204        48  TIP3      H1            -17.5217981498      -15.6646677247      -16.0996952788  WT01      43              0.0000000000
       205        48  TIP3      H2            -17.8223489199      -17.0988496691      -16.4800696061  WT01      43              0.0000000000
       206        49  TIP3      OH2           -11.0490146232      -10.9343445131        0.5431398608  WT01      44              0.0000000000
       207        49  TIP3      H1            -10.5755211918      -11.7527723817        0.3941042764  WT01      44              0.0000000000
       208        49  TIP3      H2            -10.4301872019      -10.2494891841        0.2896490089  WT01      44              0.0000000000
       209        50  TIP3      OH2            18.2395196319       -2.2257614036        6.8696791883  WT01      45              0.0000000000
       210        50  TIP3      H1             18.2097088580       -2.4701259416        5.9446769713  WT01      45              0.0000000000
       211        50  TIP3      H2             18.7053137260       -1.3896317038        6.8821209753  WT01      45              0.0000000000
       212        51  TIP3      OH2           -11.1808065863       10.7746448645      -10.0609693283  WT01      46              0.0000000000
       213        51  TIP3      H1            -11.9445105756       11.0130009575       -9.5354463500  WT01      46              0.0000000000
       214        51  TIP3      H2            -10.7774774108       10.0498580702       -9.5832230671  WT01      46              0.0000000000
       215        52  TIP3      OH2            -1.4877200573       13.0113888570        2.4071263366  WT01      47              0.0000000000
       216        52  TIP3      H1             -0.8890405162       13.6678645568        2.7632924127  WT01      47              0.0000000000
       217        52  TIP3      H2             -1.7472641644       13.3607073583        1.5545741375  WT01      47              0.0000000000
       218        53  TIP3      OH2            -4.9840609325       15.6319580291       -0.3351652147  WT01      48              0.0000000000
       219        53  TIP3      H1             -4.6162693505       15.4714823001       -1.2041926618  WT01      48              0.0000000000
       220        53  TIP3      H2             -5.1984187388       16.5648464092       -0.3338190302  WT01      48              0.0000000000
       221        54  TIP3      OH2           -13.2809517515      -16.8438295803       -6.1207482200  WT01      49              0.0000000000
       222        54  TIP3      H1            -13.1251183081      -16.4981372854       -5.2418599529  WT01      49              0.0000000000
       223        54  TIP3      H2            -14.2252529288      -16.7549031828       -6.2496636709  WT01      49              0.0000000000
       224        55  TIP3      OH2           -18.7037530473       19.6079243687        5.5876028624  WT01      50              0.0000000000
       225        55  TIP3      H1            -19.4402081722       19.2019643510        5.1303697444  WT01      50              0.0000000000
       226        55  TIP3      H2            -18.4584966947       20.3505137264        5.0356588632  WT01      50              0.0000000000
       227        56  TIP3      OH2             9.9583098022      -15.3181646685       -3.0190926990  WT01      51              0.0000000000
       228        56  TIP3      H1             10.7934558346      -14.9458177347       -2.7360367390  WT01      51              0.0000000000
       229        56  TIP3      H2             10.1866791732      -16.1770470829       -3.3746208127  WT01      51              0.0000000000
       230        57  TIP3      OH2           -11.3765358969      -15.7810290014       17.8337459685  WT01      52              0.0000000000
       231        57  TIP3      H1            -11.1107082723      -15.8900897170       16.9206888809  WT01      52              0.0000000000
       232        57  TIP3      H2            -10.7732144226      -16.3365467635       18.3273399573  WT01      52              0.0000000000
       233        58  TIP3      OH2            14.9654048894       19.0239265605        9.9835652224  WT01      53              0.0000000000
       234        58  TIP3      H1             15.6560790338       19.0248961182        9.3208434881  WT01      53              0.0000000000
       235        58  TIP3      H2             15.0213148712       18.1577895734       10.3871895583  WT01      53              0.0000000000
       236        59  TIP3      OH2            19.6129310017       -9.6474536322       17.6803485708  WT01      54              0.0000000000
       237        59  TIP3      H1             20.1710342151      -10.3922697543       17.4567382884  WT01      54              0.0000000000
       238        59  TIP3      H2             19.4462558007       -9.7453791323       18.6178248558  WT01      54              0.0000000000
       239        60  TIP3      OH2           -17.5606032705      -10.5656707114       12.2119433468  WT01      55              0.0000000000
       240        60  TIP3      H1            -18.2160279209       -9.8769578531       12.3229610819  WT01      55              0.0000000000
       241        60  TIP3      H2            -17.7055062047      -10.8940753098       11.3245959681  WT01      55              0.0000000000
       242        61  TIP3      OH2            -2.0141480968       18.0970343887       -7.7358528156  WT01      56              0.0000000000
       243        61  TIP3      H1             -2.5156159931       17.4967312769       -8.2875755122  WT01      56              0.0000000000
       244        61  TIP3      H2             -1.3134333599       17.5576054140       -7.3694554223  WT01      56              0.0000000000
       245        62  TIP3      OH2            -8.6986558126      -14.3767513320       -0.9993326004  WT01      57              0.0000000000
       246        62  TIP3      H1             -9.2199290198      -14.9892918243       -1.5182740227  WT01      57              0.0000000000
       247        62  TIP3      H2             -7.9361564361      -14.1873902190       -1.5461130689  WT01      57              0.0000000000
       248        63  TIP3      OH2            14.9949130714        9.9409461763        2.2858146285  WT01      58              0.0000000000
       249        63  TIP3      H1             15.8865168687       10.1398147973        1.9999374673  WT01      58              0.0000000000
       250        63  TIP3      H2             14.5940462297       10.7972936532        2.4348333688  WT01      58              0.0000000000
       251        64  TIP3      OH2             9.3322644098      -10.4313275606       -0.4021876742  WT01      59              0.0000000000
       252        64  TIP3      H1              9.8555495699       -9.6307909532       -0.3628736516  WT01      59              0.0000000000
       253        64  TIP3      H2              9.9134711948      -11.1145985920       -0.0681649478  WT01      59              0.0000000000
       254        65  TIP3      OH2           -15.0728242220      -17.4643783154        3.8188479999  WT01      60              0.0000000000
       255        65  TIP3      H1            -14.6573123515      -16.6765143102        4.1693505044  WT01      60              0.0000000000
       256        65  TIP3      H2            -14.6177943881      -17.6284600653        2.9928595977  WT01      60              0.0000000000
       257        66  TIP3      OH2            16.0820379206      -13.8740455405        5.6494278388  WT01      61              0.0000000000
       258        66  TIP3      H1             16.6532255280      -14.2578629808        6.3147553527  WT01      61              0.0000000000
       259        66  TIP3      H2             15.3439099656      -14.4803737225        5.5880676814  WT01      61              0.0000000000
       260        67  TIP3      OH2            -3.0278983450       19.5113021049      -12.5839531297  WT01      62              0.0000000000
       261        67  TIP3      H1             -3.7233553205       18.8896596489      -12.3691693705  WT01      62              0.0000000000
       262        67  TIP3      H2             -2.7503405555       19.2654170813      -13.4664122164  WT01      62              0.0000000000
       263        68  TIP3      OH2            -8.1990956799       18.6865532741       -0.8489830552  WT01      63              0.0000000000
       264        68  TIP3      H1             -7.9661772683       19.3711653946       -1.4761090944  WT01      63              0.0000000000
       265        68  TIP3      H2             -8.9630313840       18.2576801495       -1.2346019007  WT01      63              0.0000000000
       266        69  TIP3      OH2             7.3738636313       -7.2035473252       -7.9795178794  WT01      64              0.0000000000
       267        69  TIP3      H1              7.6372457514       -7.0849238462       -8.8920912408  WT01      64              0.0000000000
       268        69  TIP3      H2              7.9521087976       -7.8916717534       -7.6503536195  WT01      64              0.0000000000
       269        70  TIP3      OH2            -3.4932063190      -17.4979449973        8.1695766010  WT01      65              0.0000000000
       270        70  TIP3      H1             -4.1416044249      -16.8194493592        7.9812806205  WT01      65              0.0000000000
       271        70  TIP3      H2             -2.9940933171      -17.5849190493        7.3574475862  WT01      65              0.0000000000
       272        71  TIP3      OH2           -16.9057264894       15.3568016893       -2.0923758306  WT01      66              0.0000000000
       273        71  TIP3      H1            -17.6851288901       15.5315404607       -1.5649006457  WT01      66              0.0000000000
       274        71  TIP3      H2            -16.8958297269       16.0568175790       -2.7451480874  WT01      66              0.0000000000
       275        72  TIP3      OH2            12.3418726357       15.6036721886       -5.0338548858  WT01      67              0.0000000000
       276        72  TIP3      H1             12.2084098302       16.5427881203       -5.1622322880  WT01      67              0.0000000000
       277        72  TIP3      H2             12.7425031148       15.3044259743       -5.8500526152  WT01      67              0.0000000000
       278        73  TIP3      OH2           -10.7385466874       -6.0917032489       -2.9584340986  WT01      68              0.0000000000
       279        73  TIP3      H1             -9.9379487287       -5.5835245091       -2.8279385506  WT01      68              0.0000000000
       280        73  TIP3      H2            -11.0451042279       -5.8372801976       -3.8287921837  WT01      68              0.0000000000
       281        74  TIP3      OH2             0.1687988662      -18.6352693795        1.1211346566  WT01      69              0.0000000000
       282        74  TIP3      H1              0.6639958132      -18.4177776827        1.9108872486  WT01      69              0.0000000000
       283        74  TIP3      H2             -0.2551385335      -19.4687526424        1.3256207020  WT01      69              0.0000000000
       284        75  TIP3      OH2           -18.2803076830       -6.9065071071       -4.2209715570  WT01      70              0.0000000000
       285        75  TIP3      H1            -19.2326637400       -6.8112830468       -4.2344671185  WT01      70              0.0000000000
       286        75  TIP3      H2            -18.0586796577       -7.2262664838       -5.0955381756  WT01      70              0.0000000000
       287        76  TIP3      OH2           -19.2982176240       15.9212851122       -0.6311244256  WT01      71              0.0000000000
       288        76  TIP3      H1            -19.5634607153       16.7286069911       -0.1905460587  WT01      71              0.0000000000
       289        76  TIP3      H2            -19.7581458896       15.9435945719       -1.4702907319  WT01      71              0.0000000000
       290        77  TIP3      OH2             6.5761006824        0.3320350569      -17.3668304641  WT01      72              0.0000000000
       291        77  TIP3      H1              6.6126970887        1.0076191019      -16.6897199028  WT01      72              0.0000000000
       292        77  TIP3      H2              5.6660958251        0.3387556501      -17.6636095138  WT01      72              0.0000000000
       293        78  TIP3      OH2            -5.2604742340       -7.7728201215        5.8598124291  WT01      73              0.0000000000
       294        78  TIP3      H1             -5.0032481486       -8.1222374891        6.7130263855  WT01      73              0.0000000000
       295        78  TIP3      H2             -4.5623216044       -8.0500654169        5.2665588890  WT01      73              0.0000000000
       296        79  TIP3      OH2            18.9834276322        5.2276723203       -1.2100201732  WT01      74              0.0000000000
       297        79  TIP3      H1             18.7866804896        4.6891733686       -1.9765325684  WT01      74              0.0000000000
       298        79  TIP3      H2             18.1826999734        5.7294093182       -1.0572883413  WT01      74              0.0000000000
       299        80  TIP3      OH2           -13.6620950250       10.2783454130       15.2829661208  WT01      75              0.0000000000
       300        80  TIP3      H1            -13.4447615879       10.8986770971       14.5871309465  WT01      75              0.0000000000
       301        80  TIP3      H2            -12.8676161735        9.7565805762       15.3960882701  WT01      75              0.0000000000
       302        81  TIP3      OH2            -3.2488016092        8.2775993545       -6.5410864627  WT01      76              0.0000000000
       303        81  TIP3      H1             -3.8909033499        8.8071847347       -7.0138194643  WT01      76              0.0000000000
       304        81  TIP3      H2             -3.6635757470        7.4194249598       -6.4531607340  WT01      76              0.0000000000
       305        82  TIP3      OH2            19.7735653913       16.4779831218       13.5106628743  WT01      77              0.0000000000
       306        82  TIP3      H1             20.4110174598       16.0510070378       14.0830072593  WT01      77              0.0000000000
       307        82  TIP3      H2             19.0784908410       16.7693038201       14.1007776355  WT01      77              0.0000000000
       308        83  TIP3      OH2            15.8332309768      -15.3052914385      -15.3386903514  WT01      78              0.0000000000
       309        83  TIP3      H1             15.9179195563      -15.8913739805      -16.0907321784  WT01      78              0.0000000000
       310        83  TIP3      H2             14.8890593824      -15.2167086789      -15.2085945944  WT01      78              0.0000000000
       311        84  TIP3      OH2           -14.3580066665       13.4794249700       11.5097984433  WT01      79              0.0000000000
       312        84  TIP3      H1            -15.2480957814       13.7388212275       11.2717086280  WT01      79              0.0000000000
       313        84  TIP3      H2            -13.7957641802       14.1096695883       11.0593465383  WT01      79              0.0000000000
       314        85  TIP3      OH2            -8.6663280049       -0.7323793212       -2.6657171504  WT01      80              0.0000000000
       315        85  TIP3      H1             -9.5546785469       -0.6721943024       -2.3143727479  WT01      80              0.0000000000
       316        85  TIP3      H2             -8.7782235979       -0.6651349327       -3.6139731178  WT01      80              0.0000000000
       317        86  TIP3      OH2            16.6687420377        1.8474941915       -7.5883122914  WT01      81              0.0000000000
       318        86  TIP3      H1             15.8239348830        1.8436867408       -7.1382920854  WT01      81              0.0000000000
       319        86  TIP3      H2             17.2899468870        2.1588098758       -6.9299667203  WT01      81              0.0000000000
       320        87  TIP3      OH2           -18.0263406745      -10.6344663539      -13.2241579587  WT01      82              0.0000000000
       321        87  TIP3      H1            -17.1467302206      -10.9050045582      -12.9608590021  WT01      82              0.0000000000
       322        87  TIP3      H2            -17.9727293837      -10.5362549737      -14.1747957263  WT01      82              0.0000000000
       323        88  TIP3      OH2            -9.6988277173      -17.4529650171      -11.4479518336  WT01      83              0.0000000000
       324        88  TIP3      H1             -9.7184579881      -17.9475989989      -10.6286938232  WT01      83              0.0000000000
       325        88  TIP3      H2             -9.8624296993      -18.1071885580      -12.1272586576  WT01      83              0.0000000000
       326        89  TIP3      OH2            -6.5834675787       -6.2818441800       -4.3108946765  WT01      84              0.0000000000
       327        89  TIP3      H1             -6.4381441068       -7.2279035164       -4.3016951361  WT01      84              0.0000000000
       328        89  TIP3      H2             -7.2660842812       -6.1502865541       -4.9688907551  WT01      84              0.0000000000
       329        90  TIP3      OH2             3.4702771625      -14.6996544031        7.2820114595  WT01      85              0.0000000000
       330        90  TIP3      H1              3.4143903690      -13.8085901413        6.9368840068  WT01      85              0.0000000000
       331        90  TIP3      H2              4.4011494699      -14.8286302558        7.4638734613  WT01      85              0.0000000000
       332        91  TIP3      OH2            -5.9368166528      -14.7715602656      -11.0587000521  WT01      86              0.0000000000
       333        91  TIP3      H1             -5.1101195650      -15.2400586216      -10.9433179626  WT01      86              0.0000000000
       334        91  TIP3      H2             -6.4192668469      -15.2909607428      -11.7018926870  WT01      86              0.0000000000
       335        92  TIP3      OH2           -10.6921268185       17.6863386588      -14.3066412642  WT01      87              0.0000000000
       336        92  TIP3      H1            -10.2328357186       17.5770583196      -15.1393124502  WT01      87              0.0000000000
       337        92  TIP3      H2            -10.3043307654       17.0276925796      -13.7304196276  WT01      87              0.0000000000
       338        93  TIP3      OH2            -3.6261416477        3.3589637337        0.3666727501  WT01      88              0.0000000000
       339        93  TIP3      H1             -3.6913908805        2.4085616861        0.4600017205  WT01      88              0.0000000000
       340        93  TIP3      H2             -4.2839767327        3.7050520569        0.9697545725  WT01      88              0.0000000000
       341        94  TIP3      OH2           -11.1338457248       19.2482912654      -10.4858034787  WT01      89              0.0000000000
       342        94  TIP3      H1            -11.9789417487       19.5201748667      -10.1278595882  WT01      89              0.0000000000
       343        94  TIP3      H2            -10.4955272811       19.8118810267      -10.0485987711  WT01      89              0.0000000000
       344        95  TIP3      OH2           -14.2620079951       19.6649189652        5.1597281523  WT01      90              0.0000000000
       345        95  TIP3      H1            -13.4442417643       19.7231639202        5.6537906261  WT01      90              0.0000000000
       346        95  TIP3      H2            -14.4628509158       20.5697304718        4.9205418868  WT01      90              0.0000000000
       347        96  TIP3      OH2             9.0510898768       17.1139683182       -0.8395380941  WT01      91              0.0000000000
       348        96  TIP3      H1              8.6157123862       16.3217928003       -0.5246790771  WT01      91              0.0000000000
       349        96  TIP3      H2              9.2286490443       16.9390373682       -1.7637154125  WT01      91              0.0000000000
       350        97  TIP3      OH2           -16.4510039730      -11.8866729425        1.6968965912  WT01      92              0.0000000000
       351        97  TIP3      H1            -16.4883805784      -12.8198527499        1.4871103965  WT01      92              0.0000000000
       352        97  TIP3      H2            -16.2029163959      -11.4654403151        0.8739461439  WT01      92              0.0000000000
       353        98  TIP3      OH2            14.4567271322       -4.8567753662        0.7055678894  WT01      93              0.0000000000
       354        98  TIP3      H1             14.6344830664       -4.4901091919       -0.1605675247  WT01      93              0.0000000000
       355        98  TIP3      H2             13.7688837156       -5.5052098108        0.5551151852  WT01      93              0.0000000000
       356        99  TIP3      OH2           -14.0257593268        3.4333812535       17.2226811382  WT01      94              0.0000000000
       357        99  TIP3      H1            -14.8006232848        2.9374293686       17.4869714815  WT01      94              0.0000000000
       358        99  TIP3      H2            -13.3418140610        2.7720057451       17.1176424722  WT01      94              0.0000000000
       359       100  TIP3      OH2            14.3533797415      -15.2529843448       19.5785926371  WT01      95              0.0000000000
       360       100  TIP3      H1             14.2782566746      -14.7338553299       18.7779095526  WT01      95              0.0000000000
       361       100  TIP3      H2             15.2888455443      -15.4403506491       19.6562419181  WT01      95              0.0000000000
       362       101  TIP3      OH2            -6.4573569352       -1.9552616317        4.1022231219  WT01      96              0.0000000000
       363       101  TIP3      H1             -5.5169513326       -2.0488831245        4.2542235489  WT01      96              0.0000000000
       364       101  TIP3      H2             -6.6156099915       -1.0124808122        4.1507216543  WT01      96              0.0000000000
       365       102  TIP3      OH2            17.2766038418      -18.9659957846        5.8097139955  WT01      97              0.0000000000
       366       102  TIP3      H1             17.8238595890      -19.6860813385        5.4963136872  WT01      97              0.0000000000
       367       102  TIP3      H2             17.7181521812      -18.1758776265        5.4982976001  WT01      97              0.0000000000
       368       103  TIP3      OH2           -13.4824810407       13.5512386709       -4.3726434266  WT01      98              0.0000000000
       369       103  TIP3      H1            -13.8938669152       13.4547937539       -3.5137535319  WT01      98              0.0000000000
       370       103  TIP3      H2            -13.0595819237       14.4093751749       -4.3411809350  WT01      98              0.0000000000
       371       104  TIP3      OH2            12.1731499590       19.5337961287        9.0531653488  WT01      99              0.0000000000
       372       104  TIP3      H1             12.1724130578       19.1665724956        8.1692094272  WT01      99              0.0000000000
       373       104  TIP3      H2             13.0762169837       19.4331208229        9.3541076070  WT01      99              0.0000000000
       374       105  TIP3      OH2           -17.4008931157       -5.1909134291        1.3700969554  WT01      100             0.0000000000
       375       105  TIP3      H1            -18.0130228475       -5.1332589843        2.1037214967  WT01      100             0.0000000000
       376       105  TIP3      H2            -17.6234370514       -6.0144869072        0.9360085614  WT01      100             0.0000000000
       377       106  TIP3      OH2            17.9999216452       13.5235286989        9.4817008631  WT01      101             0.0000000000
       378       106  TIP3      H1             18.2711431174       12.6166302830        9.3395530973  WT01      101             0.0000000000
       379       106  TIP3      H2             18.6877350640       13.8960533823       10.0333981282  WT01      101             0.0000000000
       380       107  TIP3      OH2           -16.9935508900      -19.6003016071       -3.5274498898  WT01      102             0.0000000000
       381       107  TIP3      H1            -17.8049501405      -19.1039684557       -3.4201350723  WT01      102             0.0000000000
       382       107  TIP3      H2            -16.3405777089      -18.9434188451       -3.7690339801  WT01      102             0.0000000000
       383       108  TIP3      OH2             7.8533337027       16.4042117016       12.9958580263  WT01      103             0.0000000000
       384       108  TIP3      H1              6.9230601120       16.2592817312       13.1685373856  WT01      103             0.0000000000
       385       108  TIP3      H2              8.3019089573       15.9845886281       13.7299755429  WT01      103             0.0000000000
       386       109  TIP3      OH2            19.6738334611       -3.0418729599      -13.4791210164  WT01      104             0.0000000000
       387       109  TIP3      H1             19.9698227387       -3.6488562420      -12.8007454169  WT01      104             0.0000000000
       388       109  TIP3      H2             20.4318738999       -2.4822654118      -13.6477801288  WT01      104             0.0000000000
       389       110  TIP3      OH2             3.8186714614       18.0230876419       -7.5328340459  WT01      105             0.0000000000
       390       110  TIP3      H1              3.1205942685       17.7740895017       -6.9270948529  WT01      105             0.0000000000
       391       110  TIP3      H2              3.8482730509       17.3102517728       -8.1709724171  WT01      105             0.0000000000
       392       111  TIP3      OH2            10.1253886836      -17.5539965790      -12.8829380952  WT01      106             0.0000000000
       393       111  TIP3      H1             11.0761788130      -17.4499012747      -12.9202758586  WT01      106             0.0000000000
       394       111  TIP3      H2              9.7911136116      -16.6649583216      -12.7641821929  WT01      106             0.0000000000
       395       112  TIP3      OH2            16.8821971716        2.6580153564      -16.6181574540  WT01      107             0.0000000000
       396       112  TIP3      H1             16.5788283302        3.5638181993      -16.6791522658  WT01      107             0.0000000000
       397       112  TIP3      H2             16.6567727453        2.2719204247      -17.4645299150  WT01      107             0.0000000000
       398       113  TIP3      OH2            -7.7999897722       19.2948934099      -14.4627794406  WT01      108             0.0000000000
       399       113  TIP3      H1             -7.5558062055       18.4648074352      -14.0534342667  WT01      108             0.0000000000
       400       113  TIP3      H2             -7.0546459403       19.8723214050      -14.2976392160  WT01      108             0.0000000000
       401       114  TIP3      OH2            -7.6193124407        8.1222065669       14.8222403617  WT01      109             0.0000000000
       402       114  TIP3      H1             -7.3110213603        8.2265952450       15.7224022497  WT01      109             0.0000000000
       403       114  TIP3      H2             -7.6087507325        9.0084227521       14.4606589265  WT01      109             0.0000000000
       404       115  TIP3      OH2            15.1676932995       -9.7839903767        8.5651891736  WT01      110             0.0000000000
       405       115  TIP3      H1             15.7598733134       -9.9340486797        7.8282786309  WT01      110             0.0000000000
       406       115  TIP3      H2             14.3103412649       -9.6509591972        8.1608600934  WT01      110             0.0000000000
       407       116  TIP3      OH2            16.8609585996       -7.5169133933       -4.2984380192  WT01      111             0.0000000000
       408       116  TIP3      H1             17.1943145009       -8.4082797394       -4.4012567486  WT01      111             0.0000000000
       409       116  TIP3      H2             16.8560723389       -7.1586444627       -5.1860479048  WT01      111             0.0000000000
       410       117  TIP3      OH2           -14.4300420518      -17.1694254633        8.7784683819  WT01      112             0.0000000000
       411       117  TIP3      H1            -14.0898579835      -17.8772005870        9.3257900286  WT01      112             0.0000000000
       412       117  TIP3      H2            -15.0392540562      -17.6009395003        8.1793956144  WT01      112             0.0000000000
       413       118  TIP3      OH2           -17.5603754729      -12.5032339757       14.3385295362  WT01      113             0.0000000000
       414       118  TIP3      H1            -17.7698531195      -11.9118899343       13.6155750761  WT01      113             0.0000000000
       415       118  TIP3      H2            -16.6044529253      -12.5526686407       14.3388580641  WT01      113             0.0000000000
       416       119  TIP3      OH2            -8.8632159281      -18.0621155541       -3.8314878804  WT01      114             0.0000000000
       417       119  TIP3      H1             -8.3885445515      -18.2628317985       -3.0248703226  WT01      114             0.0000000000
       418       119  TIP3      H2             -8.8160481365      -18.8687001299       -4.3447405790  WT01      114             0.0000000000
       419       120  TIP3      OH2           -19.0240207420       -3.9036277674       13.4770356664  WT01      115             0.0000000000
       420       120  TIP3      H1            -18.4755200276       -4.6662520488       13.6608371428  WT01      115             0.0000000000
       421       120  TIP3      H2            -19.6784659685       -3.9047549540       14.1755569518  WT01      115             0.0000000000
       422       121  TIP3      OH2           -17.8406975425       -7.7765092063        4.7970570449  WT01      116             0.0000000000
       423       121  TIP3      H1            -18.0960333096       -7.8190047929        3.8755205116  WT01      116             0.0000000000
       424       121  TIP3      H2            -17.2763110367       -8.5389406966        4.9251113526  WT01      116             0.0000000000
       425       122  TIP3      OH2            12.6700743700       15.9515797518        8.9799660402  WT01      117             0.0000000000
       426       122  TIP3      H1             13.2145353354       16.4448607229        9.5935358829  WT01      117             0.0000000000
       427       122  TIP3      H2             12.7743928012       16.4087280942        8.1454812476  WT01      117             0.0000000000
       428       123  TIP3      OH2            -6.4374642158       10.7630981119        4.6646998145  WT01      118             0.0000000000
       429       123  TIP3      H1             -7.3677324079       10.9839355293        4.7101281836  WT01      118             0.0000000000
       430       123  TIP3      H2             -6.3729897400       10.1441011361        3.9374326029  WT01      118             0.0000000000
       431       124  TIP3      OH2            -0.5725200080      -13.1180898024       -7.9551362871  WT01      119             0.0000000000
       432       124  TIP3      H1             -0.4314689987      -12.2528449105       -8.3394378623  WT01      119             0.0000000000
       433       124  TIP3      H2             -0.2827735672      -13.7309613165       -8.6309079336  WT01      119             0.0000000000
       434       125  TIP3      OH2            -2.9078164692       -5.6815080689       -0.7403099791  WT01      120             0.0000000000
       435       125  TIP3      H1             -2.0162458365       -5.6699417560       -1.0884476507  WT01      120             0.0000000000
       436       125  TIP3      H2             -3.4496255943       -5.3514476886       -1.4570629549  WT01      120             0.0000000000
       437       126  TIP3      OH2            -1.9980426040       -9.9104058844       -7.1029222210  WT01      121             0.0000000000
       438       126  TIP3      H1             -2.7260516912      -10.5146681021       -7.2481866432  WT01      121             0.0000000000
       439       126  TIP3      H2             -1.4783821795       -9.9635053935       -7.9050227735  WT01      121             0.0000000000
       440       127  TIP3      OH2           -17.0924458511      -10.9119721424        4.3080349663  WT01      122             0.0000000000
       441       127  TIP3      H1            -17.1251661384      -11.5201861704        3.5696333886  WT01      122             0.0000000000
       442       127  TIP3      H2            -16.5960096539      -10.1623347327        3.9796652552  WT01      122             0.0000000000
       443       128  TIP3      OH2           -13.9235330561       11.9931691351        4.0492238054  WT01      123             0.0000000000
       444       128  TIP3      H1            -14.3119536369       12.4220898636        3.2867355943  WT01      123             0.0000000000
       445       128  TIP3      H2            -14.2462740293       12.4954193428        4.7974315334  WT01      123             0.0000000000
       446       129  TIP3      OH2            -6.1219771064       -9.8391441562        3.4644494776  WT01      124             0.0000000000
       447       129  TIP3      H1             -5.2920560693       -9.9633517194        3.0039764986  WT01      124             0.0000000000
       448       129  TIP3      H2             -5.9426239317      -10.1190438181        4.3620687895  WT01      124             0.0000000000
       449       130  TIP3      OH2           -12.4722112240      -16.9328960360       -2.9539840114  WT01      125             0.0000000000
       450       130  TIP3      H1            -12.7266542761      -17.7744265322       -2.5754117353  WT01      125             0.0000000000
       451       130  TIP3      H2            -13.0332293129      -16.2930988498       -2.5156347494  WT01      125             0.0000000000
       452       131  TIP3      OH2           -19.8507648578       -5.0656385933      -15.9551330845  WT01      126             0.0000000000
       453       131  TIP3      H1            -20.0938571885       -5.0312622534      -15.0299540763  WT01      126             0.0000000000
       454       131  TIP3      H2            -20.6811614373       -4.9862185182      -16.4245644252  WT01      126             0.0000000000
       455       132  TIP3      OH2            14.5922490746      -18.9692052439        5.5251498434  WT01      127             0.0000000000
       456       132  TIP3      H1             15.5306997707      -19.1017985963        5.3911307966  WT01      127             0.0000000000
       457       132  TIP3      H2             14.5392019382      -18.2623722775        6.1684265878  WT01      127             0.0000000000
       458       133  TIP3      OH2            17.2320276327      -15.6357360193       19.3853271885  WT01      128             0.0000000000
       459       133  TIP3      H1             17.8284671093      -15.9172507615       20.0790427007  WT01      128             0.0000000000
       460       133  TIP3      H2             17.5755637083      -14.7881626458       19.1027778080  WT01      128             0.0000000000
       461       134  TIP3      OH2            11.8488681771      -13.0643629060       14.7714788363  WT01      129             0.0000000000
       462       134  TIP3      H1             12.6179276118      -13.3933510094       14.3061335615  WT01      129             0.0000000000
       463       134  TIP3      H2             11.9153694571      -12.1120253441       14.7017467850  WT01      129             0.0000000000
       464       135  TIP3      OH2            -9.0927993250       11.4528458912       14.5776610836  WT01      130             0.0000000000
       465       135  TIP3      H1             -8.4391952214       10.9808054317       14.0617044078  WT01      130             0.0000000000
       466       135  TIP3      H2             -9.8340612133       10.8499956519       14.6354037279  WT01      130             0.0000000000
       467       136  TIP3      OH2             2.4011875559      -15.3608101685        9.8717909187  WT01      131             0.0000000000
       468       136  TIP3      H1              2.7129332849      -15.3763308338        8.9669121863  WT01      131             0.0000000000
       469       136  TIP3      H2              2.2609096545      -14.4331264016       10.0614135707  WT01      131             0.0000000000
       470       137  TIP3      OH2             7.9835046303       -5.3126607590       -1.6874569170  WT01      132             0.0000000000
       471       137  TIP3      H1              7.9301520009       -4.7624906027       -2.4689286740  WT01      132             0.0000000000
       472       137  TIP3      H2              7.1030660342       -5.6749579720       -1.5884598516  WT01      132             0.0000000000
       473       138  TIP3      OH2             9.4059270272      -12.2733878798      -18.2383850862  WT01      133             0.0000000000
       474       138  TIP3      H1              8.9982765351      -12.3639697364      -19.0996909637  WT01      133             0.0000000000
       475       138  TIP3      H2             10.3409304386      -12.1853803901      -18.4234664561  WT01      133             0.0000000000
       476       139  TIP3      OH2           -15.1135587125       -6.1478640838        3.8693155777  WT01      134             0.0000000000
       477       139  TIP3      H1            -15.4818625748       -5.2796523033        4.0329993592  WT01      134             0.0000000000
       478       139  TIP3      H2            -14.2984793525       -5.9776717333        3.3971799916  WT01      134             0.0000000000
       479       140  TIP3      OH2            -8.4532690397      -18.4606017093        0.6522915681  WT01      135             0.0000000000
       480       140  TIP3      H1             -8.7872949705      -19.2241718652        0.1815271838  WT01      135             0.0000000000
       481       140  TIP3      H2             -7.7563604610      -18.1191626828        0.0919616338  WT01      135             0.0000000000
       482       141  TIP3      OH2            -9.2847545731      -11.0983762462       16.1895141665  WT01      136             0.0000000000
       483       141  TIP3      H1             -9.6159625851      -11.6892803190       15.5132261801  WT01      136             0.0000000000
       484       141  TIP3      H2             -8.3851558350      -10.9088369605       15.9230019141  WT01      136             0.0000000000
       485       142  TIP3      OH2             9.0180963892       18.5168939563       11.8449959681  WT01      137             0.0000000000
       486       142  TIP3      H1              9.9607425041       18.3562899383       11.8019092824  WT01      137             0.0000000000
       487       142  TIP3      H2              8.6796659142       17.8125335806       12.3977826230  WT01      137             0.0000000000
       488       143  TIP3      OH2            18.1033975298       -7.1831546056       10.8933123774  WT01      138             0.0000000000
       489       143  TIP3      H1             18.8689421785       -7.6981274457       11.1482166262  WT01      138             0.0000000000
       490       143  TIP3      H2             17.9219175013       -6.6305655653       11.6535374512  WT01      138             0.0000000000
       491       144  TIP3      OH2           -15.5098274528      -18.0611997217       13.0568683550  WT01      139             0.0000000000
       492       144  TIP3      H1            -16.2929326259      -18.1621511222       12.5157704768  WT01      139             0.0000000000
       493       144  TIP3      H2            -14.9947434105      -17.3890960353       12.6105535838  WT01      139             0.0000000000
       494       145  TIP3      OH2            19.5318051184      -17.1019258028        7.5954866091  WT01      140             0.0000000000
       495       145  TIP3      H1             19.1646999427      -17.3397843516        8.4468906916  WT01      140             0.0000000000
       496       145  TIP3      H2             20.4439130224      -16.8788336296        7.7812845225  WT01      140             0.0000000000
       497       146  TIP3      OH2           -11.4819349482       14.9850697677       10.9776159726  WT01      141             0.0000000000
       498       146  TIP3      H1            -11.8251166842       15.7011179277       11.5121560922  WT01      141             0.0000000000
       499       146  TIP3      H2            -11.0037045221       14.4321726414       11.5955417274  WT01      141             0.0000000000
       500       147  TIP3      OH2           -15.5896961497       -6.6612233222        6.4558711075  WT01      142             0.0000000000
       501       147  TIP3      H1            -15.8291007486       -5.8744659253        6.9456976559  WT01      142             0.0000000000
       502       147  TIP3      H2            -15.5674540315       -6.3774490805        5.5419732582  WT01      142             0.0000000000
       503       148  TIP3      OH2            -8.9256716095       -5.2437717782       18.1152553285  WT01      143             0.0000000000
       504       148  TIP3      H1             -8.9168508678       -4.9308930564       17.2106775756  WT01      143             0.0000000000
       505       148  TIP3      H2             -9.2660838143       -4.5058906856       18.6211039572  WT01      143             0.0000000000
       506       149  TIP3      OH2           -14.0926676493      -15.9625839055       11.6236495940  WT01      144             0.0000000000
       507       149  TIP3      H1            -13.9582441619      -15.9728733616       10.6759912884  WT01      144             0.0000000000
       508       149  TIP3      H2            -13.2535364781      -15.6732417154       11.9819396797  WT01      144             0.0000000000
       509       150  TIP3      OH2            -3.6069785076       12.8440393887       16.0198599338  WT01      145             0.0000000000
       510       150  TIP3      H1             -3.4787396753       13.6221708490       15.4773674975  WT01      145             0.0000000000
       511       150  TIP3      H2             -2.7703940312       12.3808982761       15.9767492071  WT01      145             0.0000000000
       512       151  TIP3      OH2            12.9430351864       18.5825498799       17.3022367086  WT01      146             0.0000000000
       513       151  TIP3      H1             13.8552987178       18.6221741767       17.5893551085  WT01      146             0.0000000000
       514       151  TIP3      H2             12.6055444490       19.4655661628       17.4526164193  WT01      146             0.0000000000
       515       152  TIP3      OH2            -9.0060905277      -16.7713077943      -18.1984929820  WT01      147             0.0000000000
       516       152  TIP3      H1             -8.8060631273      -15.8359744892      -18.2355396890  WT01      147             0.0000000000
       517       152  TIP3      H2             -8.3303577837      -17.1388508996      -17.6288183946  WT01      147             0.0000000000
       518       153  TIP3      OH2           -19.5602210692       18.8432377295      -13.3601390954  WT01      148             0.0000000000
       519       153  TIP3      H1            -19.5561340098       19.4892485464      -12.6538210853  WT01      148             0.0000000000
       520       153  TIP3      H2            -20.4878467002       18.6882114282      -13.5382102764  WT01      148             0.0000000000
       521       154  TIP3      OH2            -1.8932815584       11.1126387917       17.6020139258  WT01      149             0.0000000000
       522       154  TIP3      H1             -1.2758932130       10.4355328208       17.8787646190  WT01      149             0.0000000000
       523       154  TIP3      H2             -1.5781023412       11.9118202604       18.0241547226  WT01      149             0.0000000000
       524       155  TIP3      OH2           -12.5034045573      -18.5573476283       16.6068797060  WT01      150             0.0000000000
       525       155  TIP3      H1            -11.9991613183      -17.7601960350       16.4440303763  WT01      150             0.0000000000
       526       155  TIP3      H2            -13.0885000497      -18.3279184402       17.3288612317  WT01      150             0.0000000000
       527       156  TIP3      OH2            13.3988571465      -19.3329971111       11.9841611280  WT01      151             0.0000000000
       528       156  TIP3      H1             12.6416074810      -19.4075071919       11.4034262461  WT01      151             0.0000000000
       529       156  TIP3      H2             13.9907461598      -20.0283526281       11.6971421182  WT01      151             0.0000000000
       530       157  TIP3      OH2            19.7188632206       -2.8924237543       19.4642632281  WT01      152             0.0000000000
       531       157  TIP3      H1             20.2497877036       -2.9642895844       18.6710505788  WT01      152             0.0000000000
       532       157  TIP3      H2             19.5060891157       -1.9612887405       19.5270850181  WT01      152             0.0000000000
       533       158  TIP3      OH2            15.3312516382      -10.3709178455       -3.9360961786  WT01      153             0.0000000000
       534       158  TIP3      H1             15.1567995737      -10.2404074977       -3.0040203570  WT01      153             0.0000000000
       535       158  TIP3      H2             16.2705524636      -10.5494148319       -3.9817535575  WT01      153             0.0000000000
       536       159  TIP3      OH2             2.6089920445       -9.1863980180       -8.1292796566  WT01      154             0.0000000000
       537       159  TIP3      H1              1.7370685877       -8.8748640713       -7.8865289687  WT01      154             0.0000000000
       538       159  TIP3      H2              3.0784074885       -8.3978618953       -8.4014776274  WT01      154             0.0000000000
       539       160  TIP3      OH2            -5.7056790311      -12.3698430673       15.6358185679  WT01      155             0.0000000000
       540       160  TIP3      H1             -5.8246471175      -13.2069366030       15.1870950249  WT01      155             0.0000000000
       541       160  TIP3      H2             -6.3468034861      -11.7865717226       15.2296341485  WT01      155             0.0000000000
       542       161  TIP3      OH2            18.6823391358        2.4897709343        1.9651849406  WT01      156             0.0000000000
       543       161  TIP3      H1             18.0385813315        3.0646381649        1.5512581746  WT01      156             0.0000000000
       544       161  TIP3      H2             18.2839913449        2.2456340461        2.8006177795  WT01      156             0.0000000000
       545       162  TIP3      OH2             2.7142062405       14.4785697658       14.2064765189  WT01      157             0.0000000000
       546       162  TIP3      H1              2.1229352775       15.1691155055       13.9068483479  WT01      157             0.0000000000
       547       162  TIP3      H2              2.8843323327       13.9525341749       13.4250832243  WT01      157             0.0000000000
       548       163  TIP3      OH2            10.6933565857       18.2889171815        4.2629863179  WT01      158             0.0000000000
       549       163  TIP3      H1             10.5330807146       17.3868168844        4.5400395803  WT01      158             0.0000000000
       550       163  TIP3      H2              9.9180033309       18.7700846344        4.5520140389  WT01      158             0.0000000000
       551       164  TIP3      OH2            13.0652409600       -3.9608927580      -18.6652013899  WT01      159             0.0000000000
       552       164  TIP3      H1             13.3521123935       -3.4802902435      -17.8886978067  WT01      159             0.0000000000
       553       164  TIP3      H2             13.6045366020       -3.6131862186      -19.3754775222  WT01      159             0.0000000000
       554       165  TIP3      OH2            -7.2418783590       16.2872325227        9.5710951655  WT01      160             0.0000000000
       555       165  TIP3      H1             -7.3884631178       16.2120877004        8.6281752457  WT01      160             0.0000000000
       556       165  TIP3      H2             -7.6886626630       15.5276089596        9.9447094572  WT01      160             0.0000000000
       557       166  TIP3      OH2           -18.3276560192      -18.1410964874       -6.2417922121  WT01      161             0.0000000000
       558       166  TIP3      H1            -19.1045896306      -17.5953475992       -6.3632999309  WT01      161             0.0000000000
       559       166  TIP3      H2            -18.5075164769      -18.6407547360       -5.4454106067  WT01      161             0.0000000000
       560       167  TIP3      OH2           -18.2121377078       -7.2730520011       19.7532400792  WT01      162             0.0000000000
       561       167  TIP3      H1            -17.9333305065       -7.3161357139       18.8385586324  WT01      162             0.0000000000
       562       167  TIP3      H2            -19.0429289176       -7.7480325987       19.7735183592  WT01      162             0.0000000000
       563       168  TIP3      OH2           -14.5697843177        3.2197017366       -1.0316690815  WT01      163             0.0000000000
       564       168  TIP3      H1            -15.2482976510        3.8798071964       -0.8898514182  WT01      163             0.0000000000
       565       168  TIP3      H2            -13.9635743228        3.3377038537       -0.3003574151  WT01      163             0.0000000000
       566       169  TIP3      OH2           -19.4507161474      -10.6490590505      -15.6482813076  WT01      164             0.0000000000
       567       169  TIP3      H1            -19.7650230554      -11.5525810358      -15.6152510095  WT01      164             0.0000000000
       568       169  TIP3      H2            -18.8871429501      -10.6191280296      -16.4214056161  WT01      164             0.0000000000
       569       170  TIP3      OH2           -11.1501735829      -10.6815417112       -7.7291691270  WT01      165             0.0000000000
       570       170  TIP3      H1            -11.1280524661      -10.7077270295       -8.6857551379  WT01      165             0.0000000000
       571       170  TIP3      H2            -10.2989349929      -11.0266747893       -7.4598963426  WT01      165             0.0000000000
       572       171  TIP3      OH2           -16.9141626814       11.1000169303        6.4943511823  WT01      166             0.0000000000
       573       171  TIP3      H1            -17.0047990753       10.5990990643        7.3049670881  WT01      166             0.0000000000
       574       171  TIP3      H2            -16.4753055974       11.9083018163        6.7595149317  WT01      166             0.0000000000
       575       172  TIP3      OH2            -6.1811058046        7.7488266275      -18.8920241056  WT01      167             0.0000000000
       576       172  TIP3      H1             -6.6407957101        7.0864920560      -18.3760493802  WT01      167             0.0000000000
       577       172  TIP3      H2             -5.3549992633        7.3317507968      -19.1366208044  WT01      167             0.0000000000
       578       173  TIP3      OH2           -13.7608947666       -4.0222126888      -19.4920099955  WT01      168             0.0000000000
       579       173  TIP3      H1            -13.8539573223       -4.6627450496      -20.1971975354  WT01      168             0.0000000000
       580       173  TIP3      H2            -13.3838688350       -3.2513865894      -19.9161684358  WT01      168             0.0000000000
       581       174  TIP3      OH2           -13.4096810365       -8.0451427242      -13.9437556586  WT01      169             0.0000000000
       582       174  TIP3      H1            -13.8376239804       -7.1991071427      -13.8121485062  WT01      169             0.0000000000
       583       174  TIP3      H2            -12.5908757356       -7.8328031984      -14.3917529980  WT01      169             0.0000000000
       584       175  TIP3      OH2            -6.6425041029      -19.3739926634       18.8162551469  WT01      170             0.0000000000
       585       175  TIP3      H1             -6.7716506546      -18.6367948004       18.2195204571  WT01      170             0.0000000000
       586       175  TIP3      H2             -5.9029956463      -19.8558481259       18.4458845663  WT01      170             0.0000000000
       587       176  TIP3      OH2             8.4734820751      -11.6378431710       11.7069775725  WT01      171             0.0000000000
       588       176  TIP3      H1              8.7447785355      -12.0414389822       12.5314413151  WT01      171             0.0000000000
       589       176  TIP3      H2              7.5338164609      -11.4879869422       11.8109172439  WT01      171             0.0000000000
       590       177  TIP3      OH2            17.1676260256        5.2968034218       -9.2454370140  WT01      172             0.0000000000
       591       177  TIP3      H1             16.7688516780        6.0003023291       -8.7332845776  WT01      172             0.0000000000
       592       177  TIP3      H2             17.5900935108        5.7437314232       -9.9789275706  WT01      172             0.0000000000
       593       178  TIP3      OH2            -4.4967674682       -0.7462351280      -12.5191991513  WT01      173             0.0000000000
       594       178  TIP3      H1             -4.9050583784       -0.0499640679      -12.0046732000  WT01      173             0.0000000000
       595       178  TIP3      H2             -3.7332924931       -1.0085348352      -12.0048678990  WT01      173             0.0000000000
       596       179  TIP3      OH2             5.0094996824       -9.5505452941       19.0821637476  WT01      174             0.0000000000
       597       179  TIP3      H1              4.4703465776      -10.3125453089       19.2940640026  WT01      174             0.0000000000
       598       179  TIP3      H2              5.0142086204       -9.5184434496       18.1255138072  WT01      174             0.0000000000
       599       180  TIP3      OH2            10.7730467013       13.0949525255       -0.4892429005  WT01      175             0.0000000000
       600       180  TIP3      H1             11.4556740417       13.1915098062        0.1747815093  WT01      175             0.0000000000
       601       180  TIP3      H2             11.1738161610       13.4218084008       -1.2947122594  WT01      175             0.0000000000
       602       181  TIP3      OH2           -16.2805786698        7.3546511154      -16.9270661283  WT01      176             0.0000000000
       603       181  TIP3      H1            -16.3978143879        8.0318696290      -17.5932963305  WT01      176             0.0000000000
       604       181  TIP3      H2            -17.1379085736        7.2791887496      -16.5081118605  WT01      176             0.0000000000
       605       182  TIP3      OH2           -18.2023630845        2.6849665385      -11.1499163831  WT01      177             0.0000000000
       606       182  TIP3      H1            -18.9693922240        3.2077384394      -11.3835991806  WT01      177             0.0000000000
       607       182  TIP3      H2            -17.9973962652        2.9474299819      -10.2525127087  WT01      177             0.0000000000
       608       183  TIP3      OH2           -14.0988258974      -13.2275831066        0.0489677420  WT01      178             0.0000000000
       609       183  TIP3      H1            -14.7516966872      -13.3704313196        0.7342311445  WT01      178             0.0000000000
       610       183  TIP3      H2            -13.2824367572      -13.5598034717        0.4222909422  WT01      178             0.0000000000
       611       184  TIP3      OH2           -18.8324635182       -1.2390931357       16.8654669228  WT01      179             0.0000000000
       612       184  TIP3      H1            -18.6462629431       -2.1695937851       16.9908850167  WT01      179             0.0000000000
       613       184  TIP3      H2            -19.7497034612       -1.2124816743       16.5930801976  WT01      179             0.0000000000
       614       185  TIP3      OH2            14.5148120222        9.2623579274       13.1918808202  WT01      180             0.0000000000
       615       185  TIP3      H1             13.7711981394        9.5796713326       13.7043087734  WT01      180             0.0000000000
       616       185  TIP3      H2             15.2699477056        9.3760608213       13.7690060775  WT01      180             0.0000000000
       617       186  TIP3      OH2            14.3804577152       15.0845310086      -18.2968798587  WT01      181             0.0000000000
       618       186  TIP3      H1             15.1455592028       15.3246744488      -18.8195486380  WT01      181             0.0000000000
       619       186  TIP3      H2             13.9439794262       15.9165662721      -18.1140251774  WT01      181             0.0000000000
       620       187  TIP3      OH2           -12.2283124211       17.5320562006       -3.0282643997  WT01      182             0.0000000000
       621       187  TIP3      H1            -12.9702469609       16.9291988863       -2.9800149619  WT01      182             0.0000000000
       622       187  TIP3      H2            -11.6819186700       17.3007707945       -2.2771367536  WT01      182             0.0000000000
       623       188  TIP3      OH2            -8.6221649078       11.2392565664      -16.0907942707  WT01      183             0.0000000000
       624       188  TIP3      H1             -8.2477149310       10.8368060759      -16.8744093731  WT01      183             0.0000000000
       625       188  TIP3      H2             -8.4530285923       10.6071432533      -15.3921831649  WT01      183             0.0000000000
       626       189  TIP3      OH2            15.2190285094       18.0134122176       15.7990574951  WT01      184             0.0000000000
       627       189  TIP3      H1             15.3532022342       18.7842932478       15.2477212456  WT01      184             0.0000000000
       628       189  TIP3      H2             14.2700929106       17.8883743003       15.8099460017  WT01      184             0.0000000000
       629       190  TIP3      OH2           -13.2062516423        0.7379354732       17.1509580471  WT01      185             0.0000000000
       630       190  TIP3      H1            -12.3159805464        0.7474122526       16.7994479086  WT01      185             0.0000000000
       631       190  TIP3      H2            -13.7048577449        0.2099103720       16.5274091251  WT01      185             0.0000000000
       632       191  TIP3      OH2           -10.8663101512       -4.9215457969       14.1978094964  WT01      186             0.0000000000
       633       191  TIP3      H1            -10.2035318155       -4.3540353920       14.5913684234  WT01      186             0.0000000000
       634       191  TIP3      H2            -10.8362110626       -4.7138265719       13.2639044801  WT01      186             0.0000000000
       635       192  TIP3      OH2           -13.2190069793       13.9276221653      -15.3878884953  WT01      187             0.0000000000
       636       192  TIP3      H1            -12.3812925757       13.8994857301      -15.8501381357  WT01      187             0.0000000000
       637       192  TIP3      H2            -13.6609034125       14.7007970601      -15.7388299938  WT01      187             0.0000000000
       638       193  TIP3      OH2           -10.9182831328       -6.7607582057      -12.4896021773  WT01      188             0.0000000000
       639       193  TIP3      H1            -10.4751719232       -6.4839061944      -11.6875814601  WT01      188             0.0000000000
       640       193  TIP3      H2            -10.3921264322       -7.4913917541      -12.8145107113  WT01      188             0.0000000000
       641       194  TIP3      OH2            -4.9317828961       -4.7466426211      -11.2357662760  WT01      189             0.0000000000
       642       194  TIP3      H1             -4.6528402950       -4.3343699791      -10.4181758498  WT01      189             0.0000000000
       643       194  TIP3      H2             -5.7130684555       -5.2460899390      -10.9983277318  WT01      189             0.0000000000
       644       195  TIP3      OH2           -17.5887487982       15.1935941863       14.2811941452  WT01      190             0.0000000000
       645       195  TIP3      H1            -16.8496039377       15.7643462425       14.4912864501  WT01      190             0.0000000000
       646       195  TIP3      H2            -17.2402189609       14.3066504424       14.3711361193  WT01      190             0.0000000000
       647       196  TIP3      OH2            -5.4976783362       -3.1663891564       -7.6364973931  WT01      191             0.0000000000
       648       196  TIP3      H1             -6.2595628281       -3.4388040071       -8.1479208783  WT01      191             0.0000000000
       649       196  TIP3      H2             -5.8291062463       -2.4773877365       -7.0605942807  WT01      191             0.0000000000
       650       197  TIP3      OH2           -14.6132757021        7.4530045609       -0.0019357642  WT01      192             0.0000000000
       651       197  TIP3      H1            -13.8443740668        6.8914129690        0.0962323066  WT01      192             0.0000000000
       652       197  TIP3      H2            -14.8705331448        7.6666043797        0.8949619650  WT01      192             0.0000000000
       653       198  TIP3      OH2            -5.6098415291       -8.3335885374      -15.5850287359  WT01      193             0.0000000000
       654       198  TIP3      H1             -5.4303044763       -9.0990544097      -15.0390797858  WT01      193             0.0000000000
       655       198  TIP3      H2             -5.3969386326       -7.5855701683      -15.0270209517  WT01      193             0.0000000000
       656       199  TIP3      OH2            -8.4189389234      -12.8456186836      -11.1650947778  WT01      194             0.0000000000
       657       199  TIP3      H1             -8.8742664265      -12.0037722144      -11.1793495396  WT01      194             0.0000000000
       658       199  TIP3      H2             -8.7750531028      -13.3237795920      -11.9139449951  WT01      194             0.0000000000
       659       200  TIP3      OH2            11.2855967546       18.9018669175      -16.2904323995  WT01      195             0.0000000000
       660       200  TIP3      H1             10.6479505498       18.5825592606      -15.6519327920  WT01      195             0.0000000000
       661       200  TIP3      H2             11.6707986965       19.6753790950      -15.8786919640  WT01      195             0.0000000000
       662       201  TIP3      OH2             0.4364275478        5.0293623350        7.1694546222  WT01      196             0.0000000000
       663       201  TIP3      H1              1.3036824923        4.7207856894        6.9070024818  WT01      196             0.0000000000
       664       201  TIP3      H2              0.1264037625        4.3723639061        7.7927283405  WT01      196             0.0000000000
       665       202  TIP3      OH2           -18.3073422405        1.9048663863      -13.7639662534  WT01      197             0.0000000000
       666       202  TIP3      H1            -19.1566748898        2.2281363380      -14.0645696469  WT01      197             0.0000000000
       667       202  TIP3      H2            -18.2663116177        2.1592878209      -12.8421104986  WT01      197             0.0000000000
       668       203  TIP3      OH2            -0.3721307836        4.8988296948      -15.9813176208  WT01      198             0.0000000000
       669       203  TIP3      H1              0.3170491223        5.4725296585      -15.6464576202  WT01      198             0.0000000000
       670       203  TIP3      H2             -1.0970861469        5.0103287662      -15.3663058410  WT01      198             0.0000000000
       671       204  TIP3      OH2            10.7037907560       -8.1062957884       -2.5467981320  WT01      199             0.0000000000
       672       204  TIP3      H1             10.8809100008       -7.1881880836       -2.7515878452  WT01      199             0.0000000000
       673       204  TIP3      H2             10.5139135257       -8.5088890283       -3.3942042516  WT01      199             0.0000000000
       674       205  TIP3      OH2            -9.2399575672      -12.6434442743      -14.5649950423  WT01      200             0.0000000000
       675       205  TIP3      H1             -9.4899924302      -13.5021009510      -14.9062033216  WT01      200             0.0000000000
       676       205  TIP3      H2             -8.6616386663      -12.2782272905      -15.2346185296  WT01      200             0.0000000000
       677       206  TIP3      OH2            18.9137853519       -3.3801816289       -9.3599115607  WT01      201             0.0000000000
       678       206  TIP3      H1             18.1867838725       -3.1038581937       -8.8019276726  WT01      201             0.0000000000
       679       206  TIP3      H2             18.4972076740       -3.6652123065      -10.1732087770  WT01      201             0.0000000000
       680       207  TIP3      OH2            -5.2740016761       -0.2222665276       12.9439988434  WT01      202             0.0000000000
       681       207  TIP3      H1             -4.7386307392        0.4529879020       13.3607016467  WT01      202             0.0000000000
       682       207  TIP3      H2             -5.1785611754       -0.0590692052       12.0056547936  WT01      202             0.0000000000
       683       208  TIP3      OH2           -13.0030615937        0.2668544149       -5.9581597241  WT01      203             0.0000000000
       684       208  TIP3      H1            -12.1413832130        0.5496773733       -5.6519680302  WT01      203             0.0000000000
       685       208  TIP3      H2            -12.9935591822        0.4440162734       -6.8987739868  WT01      203             0.0000000000
       686       209  TIP3      OH2            -1.5371007368        3.2234978284       17.3896681516  WT01      204             0.0000000000
       687       209  TIP3      H1             -1.1741498590        3.6580580998       18.1614555847  WT01      204             0.0000000000
       688       209  TIP3      H2             -2.3798187521        3.6540663150       17.2459012010  WT01      204             0.0000000000
       689       210  TIP3      OH2             8.1063489969       16.1120591068       18.5302142848  WT01      205             0.0000000000
       690       210  TIP3      H1              8.8482954904       16.7109180508       18.4458627760  WT01      205             0.0000000000
       691       210  TIP3      H2              8.4938009241       15.2392290092       18.4647892446  WT01      205             0.0000000000
       692       211  TIP3      OH2           -16.9190152224       -0.0738126974       18.7825762036  WT01      206             0.0000000000
       693       211  TIP3      H1            -16.6287538029       -0.7471922327       18.1673200611  WT01      206             0.0000000000
       694       211  TIP3      H2            -17.7380335522        0.2538221038       18.4109632012  WT01      206             0.0000000000
       695       212  TIP3      OH2            19.0957589728      -18.4410918458        9.8830032772  WT01      207             0.0000000000
       696       212  TIP3      H1             19.6409335811      -19.2262293553        9.8322534132  WT01      207             0.0000000000
       697       212  TIP3      H2             18.4006845645      -18.6710087282       10.4996406141  WT01      207             0.0000000000
       698       213  TIP3      OH2             0.3772834267       -4.5185436695       -7.1898551817  WT01      208             0.0000000000
       699       213  TIP3      H1              0.4373912251       -3.6536505403       -7.5955382338  WT01      208             0.0000000000
       700       213  TIP3      H2              0.3567163586       -4.3415784953       -6.2493807621  WT01      208             0.0000000000
       701       214  TIP3      OH2           -15.5124844158      -18.5316696923      -15.1428245225  WT01      209             0.0000000000
       702       214  TIP3      H1            -16.0873715763      -17.7665819493      -15.1234000707  WT01      209             0.0000000000
       703       214  TIP3      H2            -15.3659265663      -18.7451879741      -14.2213243591  WT01      209             0.0000000000
       704       215  TIP3      OH2            -9.7814726695       16.5814052793        4.0902807599  WT01      210             0.0000000000
       705       215  TIP3      H1             -9.3961341018       17.1954387707        4.7153478528  WT01      210             0.0000000000
       706       215  TIP3      H2             -9.7759555155       17.0522059036        3.2568852091  WT01      210             0.0000000000
       707       216  TIP3      OH2            -9.0133423655        6.2105734625       17.8331394445  WT01      211             0.0000000000
       708       216  TIP3      H1             -8.2905143793        5.7372417245       18.2450964559  WT01      211             0.0000000000
       709       216  TIP3      H2             -9.5564148422        5.5261981457       17.4420710082  WT01      211             0.0000000000
       710       217  TIP3      OH2           -16.9443630914       -4.6128418796      -19.7857751334  WT01      212             0.0000000000
       711       217  TIP3      H1            -16.9930568197       -4.2100259539      -20.6527238411  WT01      212             0.0000000000
       712       217  TIP3      H2            -17.4480496327       -5.4225630048      -19.8687412623  WT01      212             0.0000000000
       713       218  TIP3      OH2           -10.9587823972       14.3125577113      -17.0473266069  WT01      213             0.0000000000
       714       218  TIP3      H1            -10.9864505574       15.2517622115      -17.2299770674  WT01      213             0.0000000000
       715       218  TIP3      H2            -11.4101589780       13.9103556707      -17.7894347606  WT01      213             0.0000000000
       716       219  TIP3      OH2            11.1183042161      -13.8087405095       19.1437342112  WT01      214             0.0000000000
       717       219  TIP3      H1             10.2854577873      -14.2255901326       18.9227477208  WT01      214             0.0000000000
       718       219  TIP3      H2             11.6449798590      -13.8883213890       18.3484283192  WT01      214             0.0000000000
       719       220  TIP3      OH2             8.5411794387       14.7671525269      -12.5208113766  WT01      215             0.0000000000
       720       220  TIP3      H1              7.6858977935       14.4311306421      -12.2528292663  WT01      215             0.0000000000
       721       220  TIP3      H2              8.8008527404       15.3553506579      -11.8117101524  WT01      215             0.0000000000
       722       221  TIP3      OH2            19.4185344820       12.5344619832        5.9925478424  WT01      216             0.0000000000
       723       221  TIP3      H1             20.1860365682       12.7572232997        5.4657179319  WT01      216             0.0000000000
       724       221  TIP3      H2             18.8818506534       13.3269815901        5.9818262866  WT01      216             0.0000000000
       725       222  TIP3      OH2           -14.6732293345       17.3027760442       -6.0809655056  WT01      217             0.0000000000
       726       222  TIP3      H1            -15.2343747644       17.9312086782       -6.5353002303  WT01      217             0.0000000000
       727       222  TIP3      H2            -13.8823298445       17.2551741363       -6.6180352089  WT01      217             0.0000000000
       728       223  TIP3      OH2           -12.3305525332      -10.5200281783      -12.9577529378  WT01      218             0.0000000000
       729       223  TIP3      H1            -12.7360700175       -9.6654751515      -12.8110337999  WT01      218             0.0000000000
       730       223  TIP3      H2            -12.1316210968      -10.5337033130      -13.8939532824  WT01      218             0.0000000000
       731       224  TIP3      OH2            18.6837998414      -19.7896548825       14.1450922436  WT01      219             0.0000000000
       732       224  TIP3      H1             18.9414996728      -18.8880518952       13.9529083180  WT01      219             0.0000000000
       733       224  TIP3      H2             18.8641515419      -20.2684329059       13.3360949139  WT01      219             0.0000000000
       734       225  TIP3      OH2             6.3209028416       17.2079942295      -18.5335806144  WT01      220             0.0000000000
       735       225  TIP3      H1              6.8039526013       17.8788278787      -19.0161538792  WT01      220             0.0000000000
       736       225  TIP3      H2              5.9197344884       16.6658234873      -19.2128056505  WT01      220             0.0000000000
       737       226  TIP3      OH2            17.8558814236       15.7021876481      -12.1679992049  WT01      221             0.0000000000
       738       226  TIP3      H1             18.7513837850       15.9593310851      -11.9484893309  WT01      221             0.0000000000
       739       226  TIP3      H2             17.8179201273       15.7562193119      -13.1229187461  WT01      221             0.0000000000
       740       227  TIP3      OH2             3.6645190609       -2.7003903616      -18.3766019122  WT01      222             0.0000000000
       741       227  TIP3      H1              4.0498334708       -2.2399471941      -19.1220928283  WT01      222             0.0000000000
       742       227  TIP3      H2              3.4079903359       -2.0046385180      -17.7713299102  WT01      222             0.0000000000
       743       228  TIP3      OH2           -12.0315334845        8.0158492800      -15.9150674017  WT01      223             0.0000000000
       744       228  TIP3      H1            -11.5160250008        7.2886838430      -16.2639416507  WT01      223             0.0000000000
       745       228  TIP3      H2            -12.2874675059        8.5206691247      -16.6870042593  WT01      223             0.0000000000
       746       229  TIP3      OH2            -1.0638191640        9.1040701243       13.9350746816  WT01      224             0.0000000000
       747       229  TIP3      H1             -0.4499484237        9.1484114737       14.6681697437  WT01      224             0.0000000000
       748       229  TIP3      H2             -1.4168003274        8.2150592947       13.9710726557  WT01      224             0.0000000000
       749       230  TIP3      OH2            14.0861890585      -12.1535065172      -15.8520799779  WT01      225             0.0000000000
       750       230  TIP3      H1             14.2400520297      -13.0342987656      -16.1937860097  WT01      225             0.0000000000
       751       230  TIP3      H2             13.2269495594      -12.2052152103      -15.4334327453  WT01      225             0.0000000000
       752       231  TIP3      OH2            -7.3997485668      -16.2205608134      -12.7352474588  WT01      226             0.0000000000
       753       231  TIP3      H1             -7.0904272897      -17.1259063646      -12.7652739731  WT01      226             0.0000000000
       754       231  TIP3      H2             -8.2083147924      -16.2600251210      -12.2244686041  WT01      226             0.0000000000
       755       232  TIP3      OH2           -11.0138790847       -9.0969082859       16.4957373747  WT01      227             0.0000000000
       756       232  TIP3      H1            -10.4355913667       -8.4743984207       16.0549465014  WT01      227             0.0000000000
       757       232  TIP3      H2            -10.5530304173       -9.9339682990       16.4393383376  WT01      227             0.0000000000
       758       233  TIP3      OH2             8.6694926336        5.2575351370       16.8274201772  WT01      228             0.0000000000
       759       233  TIP3      H1              9.2335709071        4.5243776639       16.5813965358  WT01      228             0.0000000000
       760       233  TIP3      H2              8.8268670947        5.9182663113       16.1529578689  WT01      228             0.0000000000
       761       234  TIP3      OH2            -0.0702918941       -4.2478756275      -17.3714000519  WT01      229             0.0000000000
       762       234  TIP3      H1             -0.7945550384       -3.8195691430      -17.8277204044  WT01      229             0.0000000000
       763       234  TIP3      H2              0.1863908989       -3.6253572309      -16.6910937968  WT01      229             0.0000000000
       764       235  TIP3      OH2           -10.7197167742        1.4148599089       -5.1687735653  WT01      230             0.0000000000
       765       235  TIP3      H1             -9.8058702957        1.6969539023       -5.1295383300  WT01      230             0.0000000000
       766       235  TIP3      H2            -11.2071605693        2.1204935717       -4.7436718227  WT01      230             0.0000000000
       767       236  TIP3      OH2             8.0617528420      -12.1172681557       16.4761560754  WT01      231             0.0000000000
       768       236  TIP3      H1              8.5045512665      -11.4737764270       17.0294008327  WT01      231             0.0000000000
       769       236  TIP3      H2              7.7445590647      -12.7817910195       17.0877354098  WT01      231             0.0000000000
       770       237  TIP3      OH2            -7.8214957339      -14.2374780703      -18.7272297848  WT01      232             0.0000000000
       771       237  TIP3      H1             -8.3308904160      -13.4518268521      -18.9259784507  WT01      232             0.0000000000
       772       237  TIP3      H2             -6.9343242088      -13.9146811239      -18.5692404573  WT01      232             0.0000000000
       773       238  TIP3      OH2            -9.9166060190      -15.5745524888      -15.0669854133  WT01      233             0.0000000000
       774       238  TIP3      H1            -10.4672617093      -16.3557280173      -15.0143079464  WT01      233             0.0000000000
       775       238  TIP3      H2             -9.6711802606      -15.5157552544      -15.9903168237  WT01      233             0.0000000000
       776       239  TIP3      OH2            -1.1043413054       -4.0505223923      -10.0356405647  WT01      234             0.0000000000
       777       239  TIP3      H1             -1.6636699804       -4.4017623345       -9.3428103205  WT01      234             0.0000000000
       778       239  TIP3      H2             -0.4165729627       -4.7072350409      -10.1448880585  WT01      234             0.0000000000
       779       240  TIP3      OH2            14.7223522585        6.8967504421        7.1391226745  WT01      235             0.0000000000
       780       240  TIP3      H1             15.6328996617        6.6092097053        7.0723726758  WT01      235             0.0000000000
       781       240  TIP3      H2             14.4868245068        7.1565622315        6.2484732916  WT01      235             0.0000000000
       782       241  TIP3      OH2            -6.3702943011       -6.4882172112       18.1888396625  WT01      236             0.0000000000
       783       241  TIP3      H1             -6.3269545462       -7.1960717939       18.8317201852  WT01      236             0.0000000000
       784       241  TIP3      H2             -7.2054035717       -6.0548576144       18.3649753405  WT01      236             0.0000000000
       785       242  TIP3      OH2            15.4158434620        1.8086550365        2.9058471903  WT01      237             0.0000000000
       786       242  TIP3      H1             16.0054138182        2.4811566246        2.5647017374  WT01      237             0.0000000000
       787       242  TIP3      H2             14.5382324677        2.1390768165        2.7138779194  WT01      237             0.0000000000
       788       243  TIP3      OH2            -0.8131597501        5.7814795694       -3.8291778712  WT01      238             0.0000000000
       789       243  TIP3      H1             -0.8334403658        4.8411292552       -4.0068342648  WT01      238             0.0000000000
       790       243  TIP3      H2              0.1152758220        5.9840241968       -3.7142219079  WT01      238             0.0000000000
       791       244  TIP3      OH2           -13.1703022223       -5.9638840809       -0.1697262788  WT01      239             0.0000000000
       792       244  TIP3      H1            -13.8761445164       -5.3215321676       -0.0962246696  WT01      239             0.0000000000
       793       244  TIP3      H2            -12.3693041681       -5.4399646963       -0.1816597012  WT01      239             0.0000000000
       794       245  TIP3      OH2           -17.3685110073      -16.9335901391        0.6896880215  WT01      240             0.0000000000
       795       245  TIP3      H1            -18.2062388208      -17.3882711582        0.6018865849  WT01      240             0.0000000000
       796       245  TIP3      H2            -17.4674910231      -16.3980023643        1.4768223830  WT01      240             0.0000000000
       797       246  TIP3      OH2            -2.3361690518        5.7956310667      -14.1182120329  WT01      241             0.0000000000
       798       246  TIP3      H1             -2.3889840256        5.6443970570      -13.1745115169  WT01      241             0.0000000000
       799       246  TIP3      H2             -3.2480763366        5.8306315686      -14.4070578047  WT01      241             0.0000000000
       800       247  TIP3      OH2           -19.2292639157        9.2382076251        5.8051690606  WT01      242             0.0000000000
       801       247  TIP3      H1            -18.9455412051        8.3796545577        5.4911310615  WT01      242             0.0000000000
       802       247  TIP3      H2            -18.6497782457        9.4273207754        6.5431828719  WT01      242             0.0000000000
       803       248  TIP3      OH2           -15.1415002225       18.2878822725       -0.4274891501  WT01      243             0.0000000000
       804       248  TIP3      H1            -14.8841580680       18.3415781802       -1.3478823140  WT01      243             0.0000000000
       805       248  TIP3      H2            -15.4492140057       19.1684244400       -0.2125716544  WT01      243             0.0000000000
       806       249  TIP3      OH2            -5.7668895193       13.3941786760      -10.8107448039  WT01      244             0.0000000000
       807       249  TIP3      H1             -6.6645222737       13.7262356427      -10.7957308041  WT01      244             0.0000000000
       808       249  TIP3      H2             -5.5463959924       13.2567789844       -9.8894762543  WT01      244             0.0000000000
       809       250  TIP3      OH2            -7.5658060595        2.3952744010        7.5360031894  WT01      245             0.0000000000
       810       250  TIP3      H1             -7.7562310087        2.7321932998        6.6605285722  WT01      245             0.0000000000
       811       250  TIP3      H2             -6.6231327724        2.5228293759        7.6424391476  WT01      245             0.0000000000
       812       251  TIP3      OH2            -8.9305833873        4.8161678171      -10.0326755835  WT01      246             0.0000000000
       813       251  TIP3      H1             -8.3010523269        4.8899402660       -9.3154029151  WT01      246             0.0000000000
       814       251  TIP3      H2             -8.4402728438        4.3975851305      -10.7402177493  WT01      246             0.0000000000
       815       252  TIP3      OH2           -15.5691969942      -19.0858380826        0.3181438577  WT01      247             0.0000000000
       816       252  TIP3      H1            -14.7229894264      -18.9407727122        0.7413702765  WT01      247             0.0000000000
       817       252  TIP3      H2            -16.0545592575      -18.2744919547        0.4677190734  WT01      247             0.0000000000
       818       253  TIP3      OH2            19.3506863544       -6.4489690132      -13.3630591248  WT01      248             0.0000000000
       819       253  TIP3      H1             18.9380135753       -7.1158078624      -13.9119297268  WT01      248             0.0000000000
       820       253  TIP3      H2             20.1457614554       -6.8678238419      -13.0334411228  WT01      248             0.0000000000
       821       254  TIP3      OH2             0.9125969473      -14.5125707413       -2.4004244690  WT01      249             0.0000000000
       822       254  TIP3      H1              1.6206255118      -15.0103325899       -1.9915717999  WT01      249             0.0000000000
       823       254  TIP3      H2              1.3305642712      -14.0565293132       -3.1308773032  WT01      249             0.0000000000
       824       255  TIP3      OH2            13.7180201995       11.5707349949       16.0445869177  WT01      250             0.0000000000
       825       255  TIP3      H1             13.2511898478       10.7385218459       16.1202341809  WT01      250             0.0000000000
       826       255  TIP3      H2             14.2584819647       11.6152892688       16.8333503855  WT01      250             0.0000000000
       827       256  TIP3      OH2             5.8106121429       -9.9800908937        6.2264926150  WT01      251             0.0000000000
       828       256  TIP3      H1              6.6113323077       -9.4663092225        6.1211008549  WT01      251             0.0000000000
       829       256  TIP3      H2              5.2926512834       -9.7798946780        5.4468325389  WT01      251             0.0000000000
       830       257  TIP3      OH2           -11.6821624016       -8.8731682537       -5.8084972792  WT01      252             0.0000000000
       831       257  TIP3      H1            -11.1375711060       -9.3059693849       -5.1509751787  WT01      252             0.0000000000
       832       257  TIP3      H2            -11.5912530930       -9.4168631070       -6.5910336778  WT01      252             0.0000000000
       833       258  TIP3      OH2            17.9452593020      -14.9103928155      -10.5021848128  WT01      253             0.0000000000
       834       258  TIP3      H1             17.4530839435      -14.5540568020      -11.2417927313  WT01      253             0.0000000000
       835       258  TIP3      H2             17.2745231277      -15.1734643226       -9.8719958112  WT01      253             0.0000000000
       836       259  TIP3      OH2           -15.7738859414       -9.8869061429       -0.4071783540  WT01      254             0.0000000000
       837       259  TIP3      H1            -16.0178432691       -9.4154797939       -1.2037170102  WT01      254             0.0000000000
       838       259  TIP3      H2            -14.9397293546       -9.4980429035       -0.1441194620  WT01      254             0.0000000000
       839       260  TIP3      OH2            16.6913390035       -4.7641314123       12.5324695562  WT01      255             0.0000000000
       840       260  TIP3      H1             16.2926304341       -4.3814986936       13.3140420034  WT01      255             0.0000000000
       841       260  TIP3      H2             16.0051950093       -4.7192722198       11.8665672488  WT01      255             0.0000000000
       842       261  TIP3      OH2            19.0237740511        6.2323843405      -14.7072002878  WT01      256             0.0000000000
       843       261  TIP3      H1             19.4349956487        7.0665572322      -14.9336604287  WT01      256             0.0000000000
       844       261  TIP3      H2             18.2967020256        6.1479733872      -15.3240251185  WT01      256             0.0000000000
       845       262  TIP3      OH2           -14.2940632876        2.5280559560      -10.4134211735  WT01      257             0.0000000000
       846       262  TIP3      H1            -14.4409827075        3.2532475361      -11.0206638492  WT01      257             0.0000000000
       847       262  TIP3      H2            -13.6003510839        2.0100192347      -10.8216284062  WT01      257             0.0000000000
       848       263  TIP3      OH2            -4.4707145624      -14.5521014566        9.2821400045  WT01      258             0.0000000000
       849       263  TIP3      H1             -4.2947611655      -14.6537212641        8.3467547213  WT01      258             0.0000000000
       850       263  TIP3      H2             -5.2589671283      -14.0104275855        9.3205993435  WT01      258             0.0000000000
       851       264  TIP3      OH2           -11.3841364063       -4.2866363453      -17.6119004593  WT01      259             0.0000000000
       852       264  TIP3      H1            -11.8323813308       -4.4088544995      -16.7750187344  WT01      259             0.0000000000
       853       264  TIP3      H2            -12.0889100424       -4.1363019368      -18.2419206959  WT01      259             0.0000000000
       854       265  TIP3      OH2           -15.8360794365        2.2382678917       -3.7021783419  WT01      260             0.0000000000
       855       265  TIP3      H1            -15.9281600744        2.6058490078       -4.5811761179  WT01      260             0.0000000000
       856       265  TIP3      H2            -14.9687777292        2.5218980232       -3.4130875118  WT01      260             0.0000000000
       857       266  TIP3      OH2           -14.0545054479       -5.0869983164       -5.0918796097  WT01      261             0.0000000000
       858       266  TIP3      H1            -14.4489169957       -5.5671934434       -4.3638109440  WT01      261             0.0000000000
       859       266  TIP3      H2            -14.3285865539       -4.1797736796       -4.9575113966  WT01      261             0.0000000000
       860       267  TIP3      OH2           -13.6234895682      -19.6400666142       -2.2576162150  WT01      262             0.0000000000
       861       267  TIP3      H1            -13.5954493161      -20.3755319380       -2.8696099347  WT01      262             0.0000000000
       862       267  TIP3      H2            -14.5540833479      -19.4315397130       -2.1754970360  WT01      262             0.0000000000
       863       268  TIP3      OH2            -5.4186068301        1.5043902615       -2.3050560683  WT01      263             0.0000000000
       864       268  TIP3      H1             -5.6822821379        2.4228068585       -2.3617843450  WT01      263             0.0000000000
       865       268  TIP3      H2             -4.7568102616        1.4020246032       -2.9889993298  WT01      263             0.0000000000
       866       269  TIP3      OH2            14.6011519114       17.1692748609        0.0704213278  WT01      264             0.0000000000
       867       269  TIP3      H1             13.6976257661       16.9773041791       -0.1806156679  WT01      264             0.0000000000
       868       269  TIP3      H2             14.5848675811       18.0868793524        0.3423930705  WT01      264             0.0000000000
       869       270  TIP3      OH2            -2.5715233473       -5.2428370185       19.2209225721  WT01      265             0.0000000000
       870       270  TIP3      H1             -2.3816835313       -4.4818496409       19.7696400462  WT01      265             0.0000000000
       871       270  TIP3      H2             -2.6140446014       -4.8925134980       18.3311489015  WT01      265             0.0000000000
       872       271  TIP3      OH2           -14.5071016521       12.3736971943      -13.2047653522  WT01      266             0.0000000000
       873       271  TIP3      H1            -14.0028118541       11.5633462178      -13.2772560792  WT01      266             0.0000000000
       874       271  TIP3      H2            -13.9769635064       13.0278144106      -13.6600850475  WT01      266             0.0000000000
       875       272  TIP3      OH2           -10.1485316824      -19.6683509684      -12.9081214506  WT01      267             0.0000000000
       876       272  TIP3      H1            -10.5846830613      -20.4021704244      -12.4750939782  WT01      267             0.0000000000
       877       272  TIP3      H2             -9.4694648035      -20.0760744313      -13.4455798795  WT01      267             0.0000000000
       878       273  TIP3      OH2            19.8600078983        3.5170341587      -19.3151036457  WT01      268             0.0000000000
       879       273  TIP3      H1             19.5534705465        3.6314406641      -18.4155605313  WT01      268             0.0000000000
       880       273  TIP3      H2             19.3287649790        4.1253557157      -19.8288717403  WT01      268             0.0000000000
       881       274  TIP3      OH2           -16.9210706444       -2.5631882072       -1.9587484879  WT01      269             0.0000000000
       882       274  TIP3      H1            -17.6642411466       -2.0521243051       -2.2792841392  WT01      269             0.0000000000
       883       274  TIP3      H2            -17.1067411537       -3.4590878795       -2.2400349080  WT01      269             0.0000000000
       884       275  TIP3      OH2           -10.1494362520      -15.7082891460       -2.9215336725  WT01      270             0.0000000000
       885       275  TIP3      H1            -11.0616987057      -15.9429266236       -2.7513740985  WT01      270             0.0000000000
       886       275  TIP3      H2             -9.7233758541      -16.5389925879       -3.1328063400  WT01      270             0.0000000000
       887       276  TIP3      OH2            11.3056987089        2.3075020961        5.6567184535  WT01      271             0.0000000000
       888       276  TIP3      H1             11.6315828862        3.0293743479        6.1942421890  WT01      271             0.0000000000
       889       276  TIP3      H2             11.0724448247        2.7155090310        4.8228390991  WT01      271             0.0000000000
       890       277  TIP3      OH2           -10.0028301179       -5.1188579223       -9.5331065037  WT01      272             0.0000000000
       891       277  TIP3      H1            -10.5193257492       -5.7026784939       -8.9775728738  WT01      272             0.0000000000
       892       277  TIP3      H2            -10.6003179149       -4.4031738881       -9.7499855176  WT01      272             0.0000000000
       893       278  TIP3      OH2           -15.3988397474       -5.1645460990      -11.7133191081  WT01      273             0.0000000000
       894       278  TIP3      H1            -15.9624241744       -4.4575344037      -12.0275465216  WT01      273             0.0000000000
       895       278  TIP3      H2            -15.2513070373       -4.9613311728      -10.7896473026  WT01      273             0.0000000000
       896       279  TIP3      OH2           -14.0010234578       15.5092809172       -2.2451322226  WT01      274             0.0000000000
       897       279  TIP3      H1            -13.7207368934       15.4516693506       -1.3317034294  WT01      274             0.0000000000
       898       279  TIP3      H2            -14.9409758334       15.6837030526       -2.1971920394  WT01      274             0.0000000000
       899       280  TIP3      OH2            15.8655585083       -7.1989389107       -7.0796943710  WT01      275             0.0000000000
       900       280  TIP3      H1             15.7073913665       -6.7184408129       -7.8923053138  WT01      275             0.0000000000
       901       280  TIP3      H2             15.8519300196       -8.1202158673       -7.3391068699  WT01      275             0.0000000000
       902       281  TIP3      OH2            -4.1887808065       16.9339591561       -5.1537847712  WT01      276             0.0000000000
       903       281  TIP3      H1             -4.8742504901       17.0618681647       -4.4980390816  WT01      276             0.0000000000
       904       281  TIP3      H2             -4.3285892168       17.6375935012       -5.7874914288  WT01      276             0.0000000000
       905       282  TIP3      OH2           -16.9255868105        4.6045859648       -0.3133877633  WT01      277             0.0000000000
       906       282  TIP3      H1            -17.3595553839        5.0026149489        0.4412485836  WT01      277             0.0000000000
       907       282  TIP3      H2            -17.0493845502        5.2360305926       -1.0220369097  WT01      277             0.0000000000
       908       283  TIP3      OH2           -19.2995142903        1.6423985821       18.4428384361  WT01      278             0.0000000000
       909       283  TIP3      H1            -19.4879339903        2.2421546651       19.1646572975  WT01      278             0.0000000000
       910       283  TIP3      H2            -19.3275390994        2.1926310689       17.6600928634  WT01      278             0.0000000000
       911       284  TIP3      OH2            -6.9026364148      -13.3210767842       -8.8803981334  WT01      279             0.0000000000
       912       284  TIP3      H1             -7.3840718746      -12.9625483557       -9.6259912362  WT01      279             0.0000000000
       913       284  TIP3      H2             -6.4315808100      -14.0735645373       -9.2383095886  WT01      279             0.0000000000
       914       285  TIP3      OH2            -9.9481158317       -1.2867670551        2.3059020130  WT01      280             0.0000000000
       915       285  TIP3      H1             -9.6940313142       -0.4267971486        1.9710518541  WT01      280             0.0000000000
       916       285  TIP3      H2            -10.9040510339       -1.2905453789        2.2568568859  WT01      280             0.0000000000
       917       286  TIP3      OH2           -11.4525306950      -17.6256085137      -14.2199457678  WT01      281             0.0000000000
       918       286  TIP3      H1            -12.2969911074      -17.4077051457      -13.8254377891  WT01      281             0.0000000000
       919       286  TIP3      H2            -11.0372426756      -18.2132411254      -13.5887123834  WT01      281             0.0000000000
       920       287  TIP3      OH2            -4.7022945791       -4.6272027260        0.9146931783  WT01      282             0.0000000000
       921       287  TIP3      H1             -5.5384366530       -5.0133919576        0.6540092303  WT01      282             0.0000000000
       922       287  TIP3      H2             -4.0447553026       -5.1354048731        0.4397147699  WT01      282             0.0000000000
       923       288  TIP3      OH2             8.5806533812       -4.4036003319       14.7575493655  WT01      283             0.0000000000
       924       288  TIP3      H1              8.5123344170       -4.6427755258       13.8332336419  WT01      283             0.0000000000
       925       288  TIP3      H2              9.4851981294       -4.6103175612       14.9927059017  WT01      283             0.0000000000
       926       289  TIP3      OH2           -18.0119092703       12.2263328518       -0.8057261829  WT01      284             0.0000000000
       927       289  TIP3      H1            -18.2332118585       12.2607710091       -1.7363555338  WT01      284             0.0000000000
       928       289  TIP3      H2            -18.0731437723       13.1348729612       -0.5107058167  WT01      284             0.0000000000
       929       290  TIP3      OH2            -2.6497917929       -7.9181019592        4.2961615864  WT01      285             0.0000000000
       930       290  TIP3      H1             -2.9079356458       -8.1420446028        3.4020456797  WT01      285             0.0000000000
       931       290  TIP3      H2             -2.0010783312       -7.2220844217        4.1914608555  WT01      285             0.0000000000
       932       291  TIP3      OH2           -14.7649836047        9.1182344546       -6.5949824032  WT01      286             0.0000000000
       933       291  TIP3      H1            -14.1207858533        9.6066020231       -6.0824024716  WT01      286             0.0000000000
       934       291  TIP3      H2            -14.3841350518        8.2452178200       -6.6899989619  WT01      286             0.0000000000
       935       292  TIP3      OH2            -3.5385491490       -7.2033536165       -6.8278413317  WT01      287             0.0000000000
       936       292  TIP3      H1             -2.7630868663       -7.2243661387       -6.2670842247  WT01      287             0.0000000000
       937       292  TIP3      H2             -3.9143803856       -8.0802913676       -6.7506216883  WT01      287             0.0000000000
       938       293  TIP3      OH2            -5.6211859854       -7.4242492717       11.9808167359  WT01      288             0.0000000000
       939       293  TIP3      H1             -5.9201144493       -8.1982988928       11.5036157631  WT01      288             0.0000000000
       940       293  TIP3      H2             -5.2593282491       -6.8507423029       11.3052573037  WT01      288             0.0000000000
       941       294  TIP3      OH2             8.1130276262        4.2889130316        5.5798879801  WT01      289             0.0000000000
       942       294  TIP3      H1              7.2461028372        4.5020182668        5.9252274943  WT01      289             0.0000000000
       943       294  TIP3      H2              8.0922353286        3.3411608270        5.4473540223  WT01      289             0.0000000000
       944       295  TIP3      OH2           -19.8491002869      -11.9438941661       -6.8808300657  WT01      290             0.0000000000
       945       295  TIP3      H1            -18.9755646993      -11.5896768711       -6.7144044186  WT01      290             0.0000000000
       946       295  TIP3      H2            -19.8318768095      -12.2018680680       -7.8024507191  WT01      290             0.0000000000
       947       296  TIP3      OH2           -15.9226391606       12.1525146433       -7.9048303709  WT01      291             0.0000000000
       948       296  TIP3      H1            -15.6307221731       12.8986588401       -7.3811080007  WT01      291             0.0000000000
       949       296  TIP3      H2            -16.2689722643       12.5432490213       -8.7070845939  WT01      291             0.0000000000
       950       297  TIP3      OH2            -5.5721591386      -16.3445463302       11.7819250843  WT01      292             0.0000000000
       951       297  TIP3      H1             -6.4800758004      -16.1579173378       11.5429925303  WT01      292             0.0000000000
       952       297  TIP3      H2             -5.0520529556      -15.7912958995       11.1991426803  WT01      292             0.0000000000
       953       298  TIP3      OH2            -1.8411221548        0.7648976218       -6.0498030388  WT01      293             0.0000000000
       954       298  TIP3      H1             -1.8718498584        0.7809268889       -7.0063753998  WT01      293             0.0000000000
       955       298  TIP3      H2             -0.9073612516        0.7745011643       -5.8394933659  WT01      293             0.0000000000
       956       299  TIP3      OH2            13.2978615930       -0.2842394558       -5.7706616152  WT01      294             0.0000000000
       957       299  TIP3      H1             13.7001457968        0.5551110343       -5.9940222767  WT01      294             0.0000000000
       958       299  TIP3      H2             13.3187284367       -0.7849442300       -6.5861928010  WT01      294             0.0000000000
       959       300  TIP3      OH2           -18.3255879844       12.1929591092      -12.8084443833  WT01      295             0.0000000000
       960       300  TIP3      H1            -17.9877301360       11.5564508506      -12.1784117476  WT01      295             0.0000000000
       961       300  TIP3      H2            -18.4133809795       13.0035768523      -12.3070233271  WT01      295             0.0000000000
       962       301  TIP3      OH2           -11.5002243258      -13.5189354329        3.9886901256  WT01      296             0.0000000000
       963       301  TIP3      H1            -12.2088939803      -14.1575877190        4.0670635228  WT01      296             0.0000000000
       964       301  TIP3      H2            -11.8430315401      -12.8518414872        3.3939627154  WT01      296             0.0000000000
       965       302  TIP3      OH2            -8.5096294002       -0.8994706523       -5.3128351450  WT01      297             0.0000000000
       966       302  TIP3      H1             -9.0236046196       -0.6466489718       -6.0797396258  WT01      297             0.0000000000
       967       302  TIP3      H2             -8.3865232357       -1.8440201794       -5.4071901887  WT01      297             0.0000000000
       968       303  TIP3      OH2            -5.6982115061       -1.3617845422       -5.6317934636  WT01      298             0.0000000000
       969       303  TIP3      H1             -5.9856694313       -1.3426116105       -4.7189779559  WT01      298             0.0000000000
       970       303  TIP3      H2             -6.4047172847       -0.9332374986       -6.1149381907  WT01      298             0.0000000000
       971       304  TIP3      OH2             5.3735582458        2.9159363409      -11.9405129015  WT01      299             0.0000000000
       972       304  TIP3      H1              5.2449744964        1.9674160655      -11.9432179865  WT01      299             0.0000000000
       973       304  TIP3      H2              6.1427657485        3.0554182241      -12.4928682519  WT01      299             0.0000000000
       974       305  TIP3      OH2             7.4972135269        7.6924910979       -8.6413547981  WT01      300             0.0000000000
       975       305  TIP3      H1              7.5468995963        8.1719394837       -7.8143769564  WT01      300             0.0000000000
       976       305  TIP3      H2              6.5652085408        7.6861045647       -8.8594321447  WT01      300             0.0000000000
       977       306  TIP3      OH2            -5.2657389126        2.2806757438       -7.8536776551  WT01      301             0.0000000000
       978       306  TIP3      H1             -5.6188184182        1.6760772516       -7.2009699586  WT01      301             0.0000000000
       979       306  TIP3      H2             -5.7726719742        3.0840048658       -7.7357242576  WT01      301             0.0000000000
       980       307  TIP3      OH2           -11.5755231036       11.3824035841      -12.5451536450  WT01      302             0.0000000000
       981       307  TIP3      H1            -11.4608420435       11.0863435795      -11.6421428260  WT01      302             0.0000000000
       982       307  TIP3      H2            -11.6778517841       12.3315554245      -12.4753579708  WT01      302             0.0000000000
       983       308  TIP3      OH2            -6.8302595470       10.7842885744       -9.1097746146  WT01      303             0.0000000000
       984       308  TIP3      H1             -7.2823908771       11.2201026511       -9.8321838905  WT01      303             0.0000000000
       985       308  TIP3      H2             -7.2833756604       11.0897799161       -8.3239039898  WT01      303             0.0000000000
       986       309  TIP3      OH2            -5.4982720485       14.6558693331        7.2307846364  WT01      304             0.0000000000
       987       309  TIP3      H1             -6.4025749017       14.8350559094        6.9731796450  WT01      304             0.0000000000
       988       309  TIP3      H2             -5.2076047177       15.4598221492        7.6613704969  WT01      304             0.0000000000
       989       310  TIP3      OH2           -17.6732232623      -13.9422772939      -16.7754398733  WT01      305             0.0000000000
       990       310  TIP3      H1            -17.8730013263      -13.5517368860      -17.6262034868  WT01      305             0.0000000000
       991       310  TIP3      H2            -17.0793393414      -13.3181117228      -16.3583654922  WT01      305             0.0000000000
       992       311  TIP3      OH2           -10.7654853291        0.7199431115       -9.5370754429  WT01      306             0.0000000000
       993       311  TIP3      H1            -10.7838622242        1.5771229876       -9.1114737972  WT01      306             0.0000000000
       994       311  TIP3      H2            -11.6500326581        0.3739867153       -9.4182393977  WT01      306             0.0000000000
       995       312  TIP3      OH2           -12.7494733490        5.9984616050       -2.3509055123  WT01      307             0.0000000000
       996       312  TIP3      H1            -13.0733669165        6.8927873506       -2.2436384216  WT01      307             0.0000000000
       997       312  TIP3      H2            -13.5208869444        5.4929461797       -2.6070442066  WT01      307             0.0000000000
       998       313  TIP3      OH2           -15.9695748098       -3.7092458241        4.7536880201  WT01      308             0.0000000000
       999       313  TIP3      H1            -16.0853999370       -3.2070426525        5.5602909741  WT01      308             0.0000000000
      1000       313  TIP3      H2            -16.0454442837       -3.0604283770        4.0540369969  WT01      308             0.0000000000
      1001       314  TIP3      OH2           -19.2962042141      -18.0231948554       -3.5015537273  WT01      309             0.0000000000
      1002       314  TIP3      H1            -19.9082832669      -17.4726054645       -3.9898593352  WT01      309             0.0000000000
      1003       314  TIP3      H2            -19.8510008358      -18.5355353470       -2.9133873051  WT01      309             0.0000000000
      1004       315  TIP3      OH2            -9.6913947801      -10.1759390805        4.3830748041  WT01      310             0.0000000000
      1005       315  TIP3      H1             -9.6468543263      -10.0873118843        3.4310279674  WT01      310             0.0000000000
      1006       315  TIP3      H2             -9.1558079012       -9.4560426280        4.7164328757  WT01      310             0.0000000000
      1007       316  TIP3      OH2            -5.9946373564       12.8554221513       -1.9864872170  WT01      311             0.0000000000
      1008       316  TIP3      H1             -5.7428767587       12.2240210099       -2.6604167469  WT01      311             0.0000000000
      1009       316  TIP3      H2             -5.8325206360       12.4013068471       -1.1596079813  WT01      311             0.0000000000
      1010       317  TIP3      OH2            18.8181181304      -11.7016491383      -18.9412160204  WT01      312             0.0000000000
      1011       317  TIP3      H1             18.3157771927      -11.5702531504      -18.1370888615  WT01      312             0.0000000000
      1012       317  TIP3      H2             18.2740047569      -12.2836897353      -19.4716886317  WT01      312             0.0000000000
      1013       318  TIP3      OH2            -2.2208058512      -17.8851126168       -8.0355965863  WT01      313             0.0000000000
      1014       318  TIP3      H1             -1.9528016116      -16.9873259052       -7.8396768093  WT01      313             0.0000000000
      1015       318  TIP3      H2             -2.2066557142      -18.3301177847       -7.1882466083  WT01      313             0.0000000000
      1016       319  TIP3      OH2             7.3102516887        3.8000835515      -13.7858080527  WT01      314             0.0000000000
      1017       319  TIP3      H1              8.1854199862        4.0474675358      -13.4872893322  WT01      314             0.0000000000
      1018       319  TIP3      H2              6.8869281065        4.6307525854      -14.0026441935  WT01      314             0.0000000000
      1019       320  TIP3      OH2            -7.7115980130      -14.3459756329        6.5102199476  WT01      315             0.0000000000
      1020       320  TIP3      H1             -8.5426734558      -14.6269737648        6.8930847661  WT01      315             0.0000000000
      1021       320  TIP3      H2             -7.9431913770      -14.0368019649        5.6344300368  WT01      315             0.0000000000
      1022       321  TIP3      OH2           -14.9408613848       10.6933586387        1.0115848158  WT01      316             0.0000000000
      1023       321  TIP3      H1            -15.5684766141       10.0426181930        1.3260173320  WT01      316             0.0000000000
      1024       321  TIP3      H2            -14.0988378147       10.2382087290        1.0197504790  WT01      316             0.0000000000
      1025       322  TIP3      OH2           -12.8709239035       -1.5596340754       14.9534904857  WT01      317             0.0000000000
      1026       322  TIP3      H1            -13.5188627984       -1.3864160754       14.2705537947  WT01      317             0.0000000000
      1027       322  TIP3      H2            -13.1092243991       -2.4204655688       15.2976035845  WT01      317             0.0000000000
      1028       323  TIP3      OH2            -1.1512926206       10.8180130558        4.5251049198  WT01      318             0.0000000000
      1029       323  TIP3      H1             -0.6064178979       10.2803594512        3.9504120025  WT01      318             0.0000000000
      1030       323  TIP3      H2             -1.5157834218       11.4907095362        3.9499025971  WT01      318             0.0000000000
      1031       324  TIP3      OH2            16.7082281996        9.6097708248       -7.1329440376  WT01      319             0.0000000000
      1032       324  TIP3      H1             17.0396030052        9.0565871254       -6.4255471589  WT01      319             0.0000000000
      1033       324  TIP3      H2             17.0948756556        9.2410316463       -7.9271524322  WT01      319             0.0000000000
      1034       325  TIP3      OH2           -17.5436048599       -2.0247083019        0.8923468144  WT01      320             0.0000000000
      1035       325  TIP3      H1            -18.2811076194       -2.6166400239        0.7442308894  WT01      320             0.0000000000
      1036       325  TIP3      H2            -16.9483368697       -2.1956683039        0.1625108680  WT01      320             0.0000000000
      1037       326  TIP3      OH2            -1.6233960902        4.3154736884       -6.2877547953  WT01      321             0.0000000000
      1038       326  TIP3      H1             -1.0039027546        5.0220853752       -6.4698529618  WT01      321             0.0000000000
      1039       326  TIP3      H2             -1.3554052399        3.9754307668       -5.4340666048  WT01      321             0.0000000000
      1040       327  TIP3      OH2            -5.0838433755      -11.0549496493       -1.0756736228  WT01      322             0.0000000000
      1041       327  TIP3      H1             -4.2836766039      -11.2570996336       -1.5605450825  WT01      322             0.0000000000
      1042       327  TIP3      H2             -4.8159538305      -11.0623039984       -0.1567541942  WT01      322             0.0000000000
      1043       328  TIP3      OH2            16.2866358484       -3.6192890970        2.0557153716  WT01      323             0.0000000000
      1044       328  TIP3      H1             15.5198236240       -4.1580311105        1.8608106092  WT01      323             0.0000000000
      1045       328  TIP3      H2             15.9326816212       -2.8514418119        2.5044455388  WT01      323             0.0000000000
      1046       329  TIP3      OH2            -9.7074287507       13.6034603622       -3.8284278658  WT01      324             0.0000000000
      1047       329  TIP3      H1            -10.0706346321       13.6384156668       -4.7133523967  WT01      324             0.0000000000
      1048       329  TIP3      H2            -10.4639772090       13.7199924433       -3.2537222756  WT01      324             0.0000000000
      1049       330  TIP3      OH2            -7.1706132861        6.5214683039        6.7907246716  WT01      325             0.0000000000
      1050       330  TIP3      H1             -7.9546696953        5.9770441383        6.7193826360  WT01      325             0.0000000000
      1051       330  TIP3      H2             -7.3565255902        7.1159045062        7.5175768077  WT01      325             0.0000000000
      1052       331  TIP3      OH2           -10.5778598715      -16.7304276787       -7.5014097609  WT01      326             0.0000000000
      1053       331  TIP3      H1            -11.2542265811      -16.7026394299       -6.8246618770  WT01      326             0.0000000000
      1054       331  TIP3      H2             -9.7621100095      -16.5537934807       -7.0328114961  WT01      326             0.0000000000
      1055       332  TIP3      OH2           -12.2670980299        5.9112242163      -10.2927875916  WT01      327             0.0000000000
      1056       332  TIP3      H1            -12.3640794993        6.4997601816       -9.5441542881  WT01      327             0.0000000000
      1057       332  TIP3      H2            -11.7752207097        6.4209164331      -10.9366061663  WT01      327             0.0000000000
      1058       333  TIP3      OH2            -2.7975874901       14.9527620412       14.4721558960  WT01      328             0.0000000000
      1059       333  TIP3      H1             -2.4042849128       14.4721854992       13.7437390641  WT01      328             0.0000000000
      1060       333  TIP3      H2             -2.7785289072       15.8683747459       14.1937282459  WT01      328             0.0000000000
      1061       334  TIP3      OH2            -6.3145529709      -16.7489851564       -0.3912497827  WT01      329             0.0000000000
      1062       334  TIP3      H1             -6.9187219283      -16.1406392290       -0.8168398610  WT01      329             0.0000000000
      1063       334  TIP3      H2             -5.7719810845      -16.1950799384        0.1700314022  WT01      329             0.0000000000
      1064       335  TIP3      OH2            -9.0150414673       -0.8195540952       12.2500392647  WT01      330             0.0000000000
      1065       335  TIP3      H1             -9.4898141218       -1.3013774178       11.5727881861  WT01      330             0.0000000000
      1066       335  TIP3      H2             -8.5923090636       -0.1001258063       11.7810487925  WT01      330             0.0000000000
      1067       336  TIP3      OH2            18.2207477402       13.5312573918       19.1390464059  WT01      331             0.0000000000
      1068       336  TIP3      H1             19.1524253190       13.3139140508       19.1078923966  WT01      331             0.0000000000
      1069       336  TIP3      H2             18.1075216429       14.1996774354       18.4633051039  WT01      331             0.0000000000
      1070       337  TIP3      OH2             7.6222711168        0.2946426469       -8.6557414572  WT01      332             0.0000000000
      1071       337  TIP3      H1              7.8816377064        0.3478710020       -7.7358895532  WT01      332             0.0000000000
      1072       337  TIP3      H2              7.0438960026       -0.4668695128       -8.6983239535  WT01      332             0.0000000000
      1073       338  TIP3      OH2           -15.2080231526       -7.8418855746       10.5694695887  WT01      333             0.0000000000
      1074       338  TIP3      H1            -14.2906994787       -7.6114269977       10.4223712112  WT01      333             0.0000000000
      1075       338  TIP3      H2            -15.1802068345       -8.5159710703       11.2484885928  WT01      333             0.0000000000
      1076       339  TIP3      OH2           -19.5029645946       -3.2638405566       -5.5489427465  WT01      334             0.0000000000
      1077       339  TIP3      H1            -19.9754308627       -2.4578362151       -5.7571840441  WT01      334             0.0000000000
      1078       339  TIP3      H2            -19.8963587471       -3.5681454351       -4.7310971665  WT01      334             0.0000000000
      1079       340  TIP3      OH2             9.8813952645       -1.7661512059        1.1900207703  WT01      335             0.0000000000
      1080       340  TIP3      H1              9.7870769458       -2.7185674553        1.2054853639  WT01      335             0.0000000000
      1081       340  TIP3      H2             10.5638415050       -1.6031145198        0.5389309310  WT01      335             0.0000000000
      1082       341  TIP3      OH2            -4.4660300351      -16.1139642326      -13.9732808155  WT01      336             0.0000000000
      1083       341  TIP3      H1             -3.6814633698      -16.1239232845      -13.4250219570  WT01      336             0.0000000000
      1084       341  TIP3      H2             -4.7537130508      -17.0265975746      -13.9971696578  WT01      336             0.0000000000
      1085       342  TIP3      OH2            -1.1885379940        8.5377641564       -4.5285019160  WT01      337             0.0000000000
      1086       342  TIP3      H1             -0.9697071405        7.7244173209       -4.0737362690  WT01      337             0.0000000000
      1087       342  TIP3      H2             -1.6320504683        8.2539274498       -5.3278549170  WT01      337             0.0000000000
      1088       343  TIP3      OH2            17.4988391930       19.1584064987      -13.7441815853  WT01      338             0.0000000000
      1089       343  TIP3      H1             17.2547736653       18.2407184781      -13.8646495319  WT01      338             0.0000000000
      1090       343  TIP3      H2             17.0700789851       19.4156070773      -12.9279436558  WT01      338             0.0000000000
      1091       344  TIP3      OH2           -10.4499508745        6.9377511063      -19.5702670853  WT01      339             0.0000000000
      1092       344  TIP3      H1            -10.6927351313        6.0736631881      -19.9028925283  WT01      339             0.0000000000
      1093       344  TIP3      H2             -9.9407027500        6.7564271624      -18.7803178552  WT01      339             0.0000000000
      1094       345  TIP3      OH2           -19.0487831607      -15.7101801373        3.1491488282  WT01      340             0.0000000000
      1095       345  TIP3      H1            -19.4755264955      -15.3578844280        2.3681176698  WT01      340             0.0000000000
      1096       345  TIP3      H2            -18.6344370448      -14.9510213464        3.5593037227  WT01      340             0.0000000000
      1097       346  TIP3      OH2            -9.0690640575       17.7129938502        1.4896054495  WT01      341             0.0000000000
      1098       346  TIP3      H1             -8.6910090119       18.1040929733        0.7019839227  WT01      341             0.0000000000
      1099       346  TIP3      H2             -8.3294176497       17.2910358880        1.9267627217  WT01      341             0.0000000000
      1100       347  TIP3      OH2           -19.7656978682       -6.0215417336       -8.3651968403  WT01      342             0.0000000000
      1101       347  TIP3      H1            -19.8153714801       -6.4918606321       -7.5329922519  WT01      342             0.0000000000
      1102       347  TIP3      H2            -20.2299111028       -5.1999836053       -8.2046349340  WT01      342             0.0000000000
      1103       348  TIP3      OH2            15.7460150605        3.6292348555        6.2733442555  WT01      343             0.0000000000
      1104       348  TIP3      H1             15.8200270505        4.0285230225        5.4065553562  WT01      343             0.0000000000
      1105       348  TIP3      H2             14.9701763056        4.0357748986        6.6593898885  WT01      343             0.0000000000
      1106       349  TIP3      OH2            -4.0704408536       12.0703753133        2.6830420838  WT01      344             0.0000000000
      1107       349  TIP3      H1             -3.1192449725       12.1689437826        2.6412992553  WT01      344             0.0000000000
      1108       349  TIP3      H2             -4.2670201125       12.0332890857        3.6191045912  WT01      344             0.0000000000
      1109       350  TIP3      OH2           -17.7778359339      -14.9376037072       -4.3296122316  WT01      345             0.0000000000
      1110       350  TIP3      H1            -18.0543751889      -14.7194849674       -5.2196583353  WT01      345             0.0000000000
      1111       350  TIP3      H2            -17.1185044680      -14.2778160286       -4.1146842242  WT01      345             0.0000000000
      1112       351  TIP3      OH2           -15.9365683088      -17.2172863823       -4.2116475645  WT01      346             0.0000000000
      1113       351  TIP3      H1            -16.0074610167      -16.8516943002       -5.0934346502  WT01      346             0.0000000000
      1114       351  TIP3      H2            -16.4948679106      -16.6560436455       -3.6735583933  WT01      346             0.0000000000
      1115       352  TIP3      OH2             9.9259640346       -2.2800573245       -8.0234962819  WT01      347             0.0000000000
      1116       352  TIP3      H1             10.7874290055       -1.9086248334       -8.2136220810  WT01      347             0.0000000000
      1117       352  TIP3      H2              9.3281728119       -1.8093360140       -8.6042706900  WT01      347             0.0000000000
      1118       353  TIP3      OH2            17.2178900445       -9.7137830458        1.4997899752  WT01      348             0.0000000000
      1119       353  TIP3      H1             16.3999090498       -9.2599914846        1.2967822851  WT01      348             0.0000000000
      1120       353  TIP3      H2             17.1640615650       -9.8974598562        2.4376583750  WT01      348             0.0000000000
      1121       354  TIP3      OH2           -19.4149126887       -2.1852442057      -17.0297997005  WT01      349             0.0000000000
      1122       354  TIP3      H1            -19.6984517781       -2.8691805286      -16.4231132064  WT01      349             0.0000000000
      1123       354  TIP3      H2            -19.3621097658       -2.6243020188      -17.8787236660  WT01      349             0.0000000000
      1124       355  TIP3      OH2           -13.9045248077      -10.3475916620      -17.6545739596  WT01      350             0.0000000000
      1125       355  TIP3      H1            -14.0370881115      -10.9687334098      -18.3707036341  WT01      350             0.0000000000
      1126       355  TIP3      H2            -13.7875097002       -9.5024582096      -18.0884964450  WT01      350             0.0000000000
      1127       356  TIP3      OH2             3.8810709470       -2.8719007359        9.3233349570  WT01      351             0.0000000000
      1128       356  TIP3      H1              3.4721753432       -2.7653185244        8.4644540407  WT01      351             0.0000000000
      1129       356  TIP3      H2              4.7354519638       -2.4491420514        9.2365018769  WT01      351             0.0000000000
      1130       357  TIP3      OH2            14.8898440329       -9.6682220402       -1.2673568691  WT01      352             0.0000000000
      1131       357  TIP3      H1             15.2665331053       -8.8217604696       -1.0268574650  WT01      352             0.0000000000
      1132       357  TIP3      H2             14.0224731038       -9.6686362267       -0.8625120705  WT01      352             0.0000000000
      1133       358  TIP3      OH2            -7.1982468212        0.0890139755        0.7345921858  WT01      353             0.0000000000
      1134       358  TIP3      H1             -7.8188351535        0.3745431616        0.0640886313  WT01      353             0.0000000000
      1135       358  TIP3      H2             -7.4295160997       -0.8245804611        0.9021974878  WT01      353             0.0000000000
      1136       359  TIP3      OH2            10.7008866015       -2.8289735481        7.9742700430  WT01      354             0.0000000000
      1137       359  TIP3      H1             11.6278329962       -2.7966585263        7.7377157537  WT01      354             0.0000000000
      1138       359  TIP3      H2             10.6671338838       -3.4107654896        8.7336189101  WT01      354             0.0000000000
      1139       360  TIP3      OH2            -8.0460215851        1.8036162837       10.9395783259  WT01      355             0.0000000000
      1140       360  TIP3      H1             -7.6511417998        2.6723236923       10.8644171359  WT01      355             0.0000000000
      1141       360  TIP3      H2             -8.8229555200        1.8440988684       10.3819345041  WT01      355             0.0000000000
      1142       361  TIP3      OH2            12.2296874385       -0.7396867092        5.7956376566  WT01      356             0.0000000000
      1143       361  TIP3      H1             13.1253340453       -0.9287841836        6.0754431463  WT01      356             0.0000000000
      1144       361  TIP3      H2             12.2844236069        0.1215388503        5.3814803211  WT01      356             0.0000000000
      1145       362  TIP3      OH2            -5.2374169448        5.2021698555      -10.7027291951  WT01      357             0.0000000000
      1146       362  TIP3      H1             -5.5019880867        5.4945961772       -9.8305361154  WT01      357             0.0000000000
      1147       362  TIP3      H2             -6.0159598692        4.7739210211      -11.0586865826  WT01      357             0.0000000000
      1148       363  TIP3      OH2            -5.9874152383        2.6680217336       16.5563168620  WT01      358             0.0000000000
      1149       363  TIP3      H1             -5.1475610268        2.3261178984       16.8628759622  WT01      358             0.0000000000
      1150       363  TIP3      H2             -6.6097177415        1.9598478928       16.7220311242  WT01      358             0.0000000000
      1151       364  TIP3      OH2           -17.8468450009        1.8942090835        8.5365867516  WT01      359             0.0000000000
      1152       364  TIP3      H1            -17.3183185743        1.2276699601        8.0977049630  WT01      359             0.0000000000
      1153       364  TIP3      H2            -17.7332663558        2.6804858399        8.0026386596  WT01      359             0.0000000000
      1154       365  TIP3      OH2            15.5735723453       -3.7701754962        6.0567528778  WT01      360             0.0000000000
      1155       365  TIP3      H1             15.8541746522       -3.9843911957        6.9464751887  WT01      360             0.0000000000
      1156       365  TIP3      H2             16.0418046126       -4.3930991946        5.5009143932  WT01      360             0.0000000000
      1157       366  TIP3      OH2            14.7222074584       14.8444045992        3.2255206503  WT01      361             0.0000000000
      1158       366  TIP3      H1             14.3930100368       13.9496304003        3.1404324504  WT01      361             0.0000000000
      1159       366  TIP3      H2             13.9786300832       15.3974913181        2.9858968210  WT01      361             0.0000000000
      1160       367  TIP3      OH2            10.5991258903       12.8411074596       13.3393290283  WT01      362             0.0000000000
      1161       367  TIP3      H1              9.9734136086       12.3287241678       12.8272945432  WT01      362             0.0000000000
      1162       367  TIP3      H2             10.6143182540       12.4146482894       14.1961449824  WT01      362             0.0000000000
      1163       368  TIP3      OH2           -17.7519109446        1.6211320677       11.2192567805  WT01      363             0.0000000000
      1164       368  TIP3      H1            -16.8374749551        1.4214144879       11.4196352235  WT01      363             0.0000000000
      1165       368  TIP3      H2            -17.7800189500        1.6848088266       10.2645908591  WT01      363             0.0000000000
      1166       369  TIP3      OH2           -12.0813979493        4.0269893179        0.3738370583  WT01      364             0.0000000000
      1167       369  TIP3      H1            -11.8154169606        4.9281076913        0.1908846004  WT01      364             0.0000000000
      1168       369  TIP3      H2            -11.5826525507        3.4983791961       -0.2491044939  WT01      364             0.0000000000
      1169       370  TIP3      OH2            16.3482827078      -11.9854432578       -0.0987414012  WT01      365             0.0000000000
      1170       370  TIP3      H1             16.5466872428      -11.1704511843       -0.5598871176  WT01      365             0.0000000000
      1171       370  TIP3      H2             17.1397907189      -12.1749077581        0.4050939712  WT01      365             0.0000000000
      1172       371  TIP3      OH2            -9.9844872875        1.5228958623        1.8618816321  WT01      366             0.0000000000
      1173       371  TIP3      H1            -10.9170769769        1.6021740751        2.0624389734  WT01      366             0.0000000000
      1174       371  TIP3      H2             -9.7726115112        2.3251137811        1.3846113970  WT01      366             0.0000000000
      1175       372  TIP3      OH2            -3.6639676220       19.6437633139       -2.4761977805  WT01      367             0.0000000000
      1176       372  TIP3      H1             -3.1891452748       20.4114327493       -2.1576711920  WT01      367             0.0000000000
      1177       372  TIP3      H2             -4.2499015004       19.9868809926       -3.1508707085  WT01      367             0.0000000000
      1178       373  TIP3      OH2           -12.0845187629        7.3526614788        8.3051844005  WT01      368             0.0000000000
      1179       373  TIP3      H1            -12.6783498316        7.8436287853        8.8731171226  WT01      368             0.0000000000
      1180       373  TIP3      H2            -11.2158532170        7.6987717562        8.5097807259  WT01      368             0.0000000000
      1181       374  TIP3      OH2            -4.7399450237       15.0505435293        4.2719626886  WT01      369             0.0000000000
      1182       374  TIP3      H1             -4.2307572941       15.3491576523        5.0254806198  WT01      369             0.0000000000
      1183       374  TIP3      H2             -4.4423256114       14.1533069989        4.1215595471  WT01      369             0.0000000000
      1184       375  TIP3      OH2           -17.0411202994       -7.1003617206       17.1554601618  WT01      370             0.0000000000
      1185       375  TIP3      H1            -16.8028259754       -8.0136075270       16.9959931643  WT01      370             0.0000000000
      1186       375  TIP3      H2            -16.2321915419       -6.6113961857       17.0045337495  WT01      370             0.0000000000
      1187       376  TIP3      OH2            -9.7288906719       -2.3022576841      -16.6188371239  WT01      371             0.0000000000
      1188       376  TIP3      H1            -10.4160358219       -2.8476741478      -17.0017003306  WT01      371             0.0000000000
      1189       376  TIP3      H2            -10.0482280235       -2.0953083773      -15.7405276959  WT01      371             0.0000000000
      1190       377  TIP3      OH2            15.1788978882      -18.0696781496        2.1866083052  WT01      372             0.0000000000
      1191       377  TIP3      H1             16.0616312654      -18.2270053016        2.5216631709  WT01      372             0.0000000000
      1192       377  TIP3      H2             14.8757365741      -17.2966013639        2.6627147136  WT01      372             0.0000000000
      1193       378  TIP3      OH2           -13.6927976244       12.3358429776      -18.4533176907  WT01      373             0.0000000000
      1194       378  TIP3      H1            -12.8294811651       12.0816790657      -18.1272544943  WT01      373             0.0000000000
      1195       378  TIP3      H2            -13.5776448880       13.2344743020      -18.7622406601  WT01      373             0.0000000000
      1196       379  TIP3      OH2           -10.7766120461       14.5334795027        0.7139200492  WT01      374             0.0000000000
      1197       379  TIP3      H1             -9.8205038765       14.5783515812        0.7052323710  WT01      374             0.0000000000
      1198       379  TIP3      H2            -10.9807012817       13.8950795212        1.3973122196  WT01      374             0.0000000000
      1199       380  TIP3      OH2            -7.6585058088       14.9632348769       -2.3367184077  WT01      375             0.0000000000
      1200       380  TIP3      H1             -8.2539012928       14.5731578653       -2.9766996213  WT01      375             0.0000000000
      1201       380  TIP3      H2             -6.9479168462       14.3276071644       -2.2514391700  WT01      375             0.0000000000
      1202       381  TIP3      OH2           -16.2436644605        4.6061451509       13.3993239180  WT01      376             0.0000000000
      1203       381  TIP3      H1            -15.4014986425        4.9152858965       13.7331210800  WT01      376             0.0000000000
      1204       381  TIP3      H2            -16.0335375074        4.1970914659       12.5598279040  WT01      376             0.0000000000
      1205       382  TIP3      OH2           -12.8490736042       -9.4889458934        4.4680605153  WT01      377             0.0000000000
      1206       382  TIP3      H1            -12.5003629528      -10.0609031753        5.1517984479  WT01      377             0.0000000000
      1207       382  TIP3      H2            -12.7731311692      -10.0024302491        3.6638227556  WT01      377             0.0000000000
      1208       383  TIP3      OH2            19.2464504778        5.8200614617       10.8831290198  WT01      378             0.0000000000
      1209       383  TIP3      H1             19.6502736370        5.1251743412       11.4030237753  WT01      378             0.0000000000
      1210       383  TIP3      H2             19.9709551163        6.1996777190       10.3859204750  WT01      378             0.0000000000
      1211       384  TIP3      OH2            13.0619786860      -10.0454075470        1.8123001336  WT01      379             0.0000000000
      1212       384  TIP3      H1             13.5108191682      -10.8380820101        1.5182912425  WT01      379             0.0000000000
      1213       384  TIP3      H2             12.7651991607       -9.6244116614        1.0055063627  WT01      379             0.0000000000
      1214       385  TIP3      OH2            18.8335332871      -15.9936716170       15.9868693831  WT01      380             0.0000000000
      1215       385  TIP3      H1             18.7347455871      -16.1160983388       15.0426848147  WT01      380             0.0000000000
      1216       385  TIP3      H2             19.0693489172      -15.0712737219       16.0858891932  WT01      380             0.0000000000
      1217       386  TIP3      OH2           -15.2654847520       -4.1919447344        0.0192398784  WT01      381             0.0000000000
      1218       386  TIP3      H1            -15.8415134212       -4.3674009896        0.7633083469  WT01      381             0.0000000000
      1219       386  TIP3      H2            -15.8611192371       -4.0228915017       -0.7107412006  WT01      381             0.0000000000
      1220       387  TIP3      OH2            11.2745977635        5.2805989378       10.6926400160  WT01      382             0.0000000000
      1221       387  TIP3      H1             10.5364583021        5.1978103911       10.0888784711  WT01      382             0.0000000000
      1222       387  TIP3      H2             11.9180031714        5.8039328535       10.2147457759  WT01      382             0.0000000000
      1223       388  TIP3      OH2           -18.9468268673       13.5091919414       18.1762798768  WT01      383             0.0000000000
      1224       388  TIP3      H1            -18.3536670111       12.7579624225       18.1831650728  WT01      383             0.0000000000
      1225       388  TIP3      H2            -18.4257673964       14.2296471263       18.5307839886  WT01      383             0.0000000000
      1226       389  TIP3      OH2           -14.1057216896       19.0051123637       11.7012830137  WT01      384             0.0000000000
      1227       389  TIP3      H1            -13.3848624836       19.4787321965       11.2862190788  WT01      384             0.0000000000
      1228       389  TIP3      H2            -14.7204572233       19.6888888167       11.9673314997  WT01      384             0.0000000000
      1229       390  TIP3      OH2            -8.3572418555       -6.0055882325        3.9694563379  WT01      385             0.0000000000
      1230       390  TIP3      H1             -8.8910149772       -5.3090306996        3.5871924644  WT01      385             0.0000000000
      1231       390  TIP3      H2             -8.9750467458       -6.5282080255        4.4807463539  WT01      385             0.0000000000
      1232       391  TIP3      OH2            -9.0594447092       -9.3299559918       19.8405948629  WT01      386             0.0000000000
      1233       391  TIP3      H1             -8.3549811852       -8.8915011203       20.3177953239  WT01      386             0.0000000000
      1234       391  TIP3      H2             -9.7725365422       -8.6915983509       19.8253839753  WT01      386             0.0000000000
      1235       392  TIP3      OH2             4.2536554369        3.4700801965       -1.0728592373  WT01      387             0.0000000000
      1236       392  TIP3      H1              3.9738133737        4.3321669026       -1.3806363350  WT01      387             0.0000000000
      1237       392  TIP3      H2              4.4544778164        2.9834061398       -1.8722656079  WT01      387             0.0000000000
      1238       393  TIP3      OH2            -7.5959747132       -2.5455174821        1.5750538294  WT01      388             0.0000000000
      1239       393  TIP3      H1             -7.1224025016       -2.9381181942        2.3084199401  WT01      388             0.0000000000
      1240       393  TIP3      H2             -8.3705688390       -2.1493097595        1.9741217332  WT01      388             0.0000000000
      1241       394  TIP3      OH2           -11.0639093949      -17.3115725861        0.2497322537  WT01      389             0.0000000000
      1242       394  TIP3      H1            -10.1446466780      -17.4566872611        0.4736286572  WT01      389             0.0000000000
      1243       394  TIP3      H2            -11.2329914839      -17.9154493383       -0.4734384912  WT01      389             0.0000000000
      1244       395  TIP3      OH2           -13.4987314456        6.2054887023       17.9024327188  WT01      390             0.0000000000
      1245       395  TIP3      H1            -13.5151250486        6.1881666240       18.8593355385  WT01      390             0.0000000000
      1246       395  TIP3      H2            -13.8316482186        5.3469332934       17.6411266853  WT01      390             0.0000000000
      1247       396  TIP3      OH2            -9.3856326352        1.9284926294       19.2510406746  WT01      391             0.0000000000
      1248       396  TIP3      H1             -9.8131220976        1.4496549267       19.9611104071  WT01      391             0.0000000000
      1249       396  TIP3      H2             -8.8156648505        2.5568290253       19.6943937044  WT01      391             0.0000000000
      1250       397  TIP3      OH2           -12.0060191844       16.9599650467       12.6702941373  WT01      392             0.0000000000
      1251       397  TIP3      H1            -12.6182114112       17.5522051646       12.2335972960  WT01      392             0.0000000000
      1252       397  TIP3      H2            -12.2805309635       16.9644801913       13.5872754390  WT01      392             0.0000000000
      1253       398  TIP3      OH2            11.6171657558        2.1491717014        9.2841264389  WT01      393             0.0000000000
      1254       398  TIP3      H1             11.2878828593        1.4751897397        8.6895232936  WT01      393             0.0000000000
      1255       398  TIP3      H2             12.5016997692        1.8600775093        9.5083048017  WT01      393             0.0000000000
      1256       399  TIP3      OH2           -18.7008611052        5.0704989319       17.2835210728  WT01      394             0.0000000000
      1257       399  TIP3      H1            -18.1922089903        5.0780535279       18.0943525998  WT01      394             0.0000000000
      1258       399  TIP3      H2            -18.4124590607        5.8519940328       16.8120112860  WT01      394             0.0000000000
      1259       400  TIP3      OH2            -9.9803255822       -3.9089211022        2.9454130538  WT01      395             0.0000000000
      1260       400  TIP3      H1             -9.8811044995       -4.0076250237        1.9984998985  WT01      395             0.0000000000
      1261       400  TIP3      H2             -9.7048109337       -3.0096222863        3.1231351098  WT01      395             0.0000000000
      1262       401  TIP3      OH2            -7.8644541352        0.8256298903       17.1489575424  WT01      396             0.0000000000
      1263       401  TIP3      H1             -8.6031168244        0.8723491563       17.7559390519  WT01      396             0.0000000000
      1264       401  TIP3      H2             -8.2033886414        0.3427020671       16.3952096209  WT01      396             0.0000000000
      1265       402  TIP3      OH2           -17.5119778109        3.3762015981        6.0632888714  WT01      397             0.0000000000
      1266       402  TIP3      H1            -17.9474749144        4.2084901751        6.2473263906  WT01      397             0.0000000000
      1267       402  TIP3      H2            -17.5959947562        3.2656552332        5.1162131273  WT01      397             0.0000000000
      1268       403  TIP3      OH2            -8.0002617803       11.2595196228       10.2245885766  WT01      398             0.0000000000
      1269       403  TIP3      H1             -7.8566816595       11.1753877919        9.2819654308  WT01      398             0.0000000000
      1270       403  TIP3      H2             -8.1776186792       12.1906118763       10.3581683539  WT01      398             0.0000000000
      1271       404  TIP3      OH2            -3.6023853413      -14.7403644324       -1.5543303565  WT01      399             0.0000000000
      1272       404  TIP3      H1             -3.1286230125      -14.3668326464       -2.2974690190  WT01      399             0.0000000000
      1273       404  TIP3      H2             -3.2862617820      -14.2485077971       -0.7964551975  WT01      399             0.0000000000
      1274       405  TIP3      OH2           -10.6084622170      -16.2644179786       15.1963149529  WT01      400             0.0000000000
      1275       405  TIP3      H1            -10.8060132927      -15.6028184127       14.5333734789  WT01      400             0.0000000000
      1276       405  TIP3      H2             -9.9579007589      -16.8318127531       14.7827151823  WT01      400             0.0000000000
      1277       406  TIP3      OH2           -12.2934899567       10.2239837435        1.3994019681  WT01      401             0.0000000000
      1278       406  TIP3      H1            -11.6441126550        9.7783299482        0.8554041502  WT01      401             0.0000000000
      1279       406  TIP3      H2            -11.8509162541       11.0178506223        1.6996280623  WT01      401             0.0000000000
      1280       407  TIP3      OH2            -4.4279641202        4.9872369661       15.9064572025  WT01      402             0.0000000000
      1281       407  TIP3      H1             -4.7209749513        5.5219162965       15.1685585119  WT01      402             0.0000000000
      1282       407  TIP3      H2             -5.2269181959        4.5774569495       16.2380963649  WT01      402             0.0000000000
      1283       408  TIP3      OH2           -12.6184688590       -1.4926787311        8.5461525438  WT01      403             0.0000000000
      1284       408  TIP3      H1            -13.5349807525       -1.3075953082        8.7510473624  WT01      403             0.0000000000
      1285       408  TIP3      H2            -12.2383350416       -0.6360201431        8.3515602640  WT01      403             0.0000000000
      1286       409  TIP3      OH2           -18.7817501143       16.1613079543      -14.8530199230  WT01      404             0.0000000000
      1287       409  TIP3      H1            -19.1967480036       15.5649789714      -14.2298022185  WT01      404             0.0000000000
      1288       409  TIP3      H2            -19.0293057074       17.0350302329      -14.5504353575  WT01      404             0.0000000000
      1289       410  TIP3      OH2            -9.5696053420        5.3240070544        6.6880836540  WT01      405             0.0000000000
      1290       410  TIP3      H1            -10.0150673025        6.0130486917        6.1951160337  WT01      405             0.0000000000
      1291       410  TIP3      H2             -9.6802803058        4.5371942883        6.1543154135  WT01      405             0.0000000000
      1292       411  TIP3      OH2           -10.0243551611        6.6577400339      -12.2922203609  WT01      406             0.0000000000
      1293       411  TIP3      H1             -9.6516909422        6.0035259902      -11.7011559177  WT01      406             0.0000000000
      1294       411  TIP3      H2             -9.6813669516        7.4924897252      -11.9731845448  WT01      406             0.0000000000
      1295       412  TIP3      OH2           -13.4211618742        4.4147368653       14.6662562985  WT01      407             0.0000000000
      1296       412  TIP3      H1            -13.6299891069        4.0230897014       15.5143338286  WT01      407             0.0000000000
      1297       412  TIP3      H2            -12.5425119301        4.7773027718       14.7791812743  WT01      407             0.0000000000
      1298       413  TIP3      OH2            17.0278165272        9.8045748899       -1.9854497503  WT01      408             0.0000000000
      1299       413  TIP3      H1             16.6837091079        9.0537737162       -1.5015907908  WT01      408             0.0000000000
      1300       413  TIP3      H2             17.7296305076        9.4409515426       -2.5253265968  WT01      408             0.0000000000
      1301       414  TIP3      OH2            14.8710032518        7.3123593313        1.2449414599  WT01      409             0.0000000000
      1302       414  TIP3      H1             14.0029103364        6.9556677391        1.0567457921  WT01      409             0.0000000000
      1303       414  TIP3      H2             14.6982407622        8.1427509472        1.6886020255  WT01      409             0.0000000000
      1304       415  TIP3      OH2           -16.3395110261       -3.4149267349       16.2506149238  WT01      410             0.0000000000
      1305       415  TIP3      H1            -15.3918887621       -3.4785850094       16.3697429217  WT01      410             0.0000000000
      1306       415  TIP3      H2            -16.4618247544       -3.4035986661       15.3013294885  WT01      410             0.0000000000
      1307       416  TIP3      OH2            -9.8937258803      -17.7041451284       19.0934635056  WT01      411             0.0000000000
      1308       416  TIP3      H1             -9.3697041708      -17.3880448505       19.8294755119  WT01      411             0.0000000000
      1309       416  TIP3      H2             -9.2882058102      -17.7085706124       18.3521419351  WT01      411             0.0000000000
      1310       417  TIP3      OH2            -3.4940231999        1.0727591206       17.6173675846  WT01      412             0.0000000000
      1311       417  TIP3      H1             -3.4876074621        1.1657611754       18.5700171882  WT01      412             0.0000000000
      1312       417  TIP3      H2             -2.7100718920        1.5380381602       17.3255327456  WT01      412             0.0000000000
      1313       418  TIP3      OH2           -15.0187817665       13.7397080920        5.9789062886  WT01      413             0.0000000000
      1314       418  TIP3      H1            -15.1151876521       14.6904289628        6.0342916843  WT01      413             0.0000000000
      1315       418  TIP3      H2            -14.8839343811       13.4590305978        6.8840406090  WT01      413             0.0000000000
      1316       419  TIP3      OH2            -4.2579154035        0.6973054738        0.1702994902  WT01      414             0.0000000000
      1317       419  TIP3      H1             -5.0420917324        1.0298752240       -0.2663887939  WT01      414             0.0000000000
      1318       419  TIP3      H2             -4.4586401654       -0.2194756593        0.3585911123  WT01      414             0.0000000000
      1319       420  TIP3      OH2           -17.8931935521        1.5502026635       -1.7009554685  WT01      415             0.0000000000
      1320       420  TIP3      H1            -17.1245035560        1.8240292022       -2.2013218619  WT01      415             0.0000000000
      1321       420  TIP3      H2            -17.5724142517        1.4481811910       -0.8048951632  WT01      415             0.0000000000
      1322       421  TIP3      OH2            15.3839537930       -3.3684666921      -13.2519946054  WT01      416             0.0000000000
      1323       421  TIP3      H1             15.8928906882       -3.4195630189      -14.0610707533  WT01      416             0.0000000000
      1324       421  TIP3      H2             16.0361746069       -3.2208344730      -12.5671263342  WT01      416             0.0000000000
      1325       422  TIP3      OH2           -12.6095004901       -6.2955563984       15.6516583811  WT01      417             0.0000000000
      1326       422  TIP3      H1            -12.4047902892       -7.2144825726       15.4787415478  WT01      417             0.0000000000
      1327       422  TIP3      H2            -12.1448384303       -5.8133580970       14.9676950931  WT01      417             0.0000000000
      1328       423  TIP3      OH2             9.8071871376       -2.1067139284      -18.5691073232  WT01      418             0.0000000000
      1329       423  TIP3      H1             10.5047651162       -2.3094469625      -19.1924179133  WT01      418             0.0000000000
      1330       423  TIP3      H2              9.7537437985       -2.8808021238      -18.0086047930  WT01      418             0.0000000000
      1331       424  TIP3      OH2           -15.5991627162       -1.6544911856        2.8659466655  WT01      419             0.0000000000
      1332       424  TIP3      H1            -15.9505558909       -0.8332876325        3.2100097008  WT01      419             0.0000000000
      1333       424  TIP3      H2            -16.1117534096       -1.8222392444        2.0751602336  WT01      419             0.0000000000
      1334       425  TIP3      OH2            13.8683522236       -6.2842447862        8.8745546847  WT01      420             0.0000000000
      1335       425  TIP3      H1             13.3932217193       -6.8433434650        9.4892834723  WT01      420             0.0000000000
      1336       425  TIP3      H2             13.2104740797       -6.0225662353        8.2303866206  WT01      420             0.0000000000
      1337       426  TIP3      OH2           -15.0847960832       -9.8704813563      -15.0913496941  WT01      421             0.0000000000
      1338       426  TIP3      H1            -14.7920294006       -9.0081154663      -14.7966556964  WT01      421             0.0000000000
      1339       426  TIP3      H2            -14.5580418424      -10.0495109602      -15.8702657242  WT01      421             0.0000000000
      1340       427  TIP3      OH2           -12.5112503482       -2.2069898127      -14.1936054901  WT01      422             0.0000000000
      1341       427  TIP3      H1            -11.8786048508       -2.8723321910      -13.9228454389  WT01      422             0.0000000000
      1342       427  TIP3      H2            -12.7816996982       -1.7866781360      -13.3772556542  WT01      422             0.0000000000
      1343       428  TIP3      OH2             5.5270195855       17.0297577464        5.3720706789  WT01      423             0.0000000000
      1344       428  TIP3      H1              4.6434311930       16.9902147422        5.0060929274  WT01      423             0.0000000000
      1345       428  TIP3      H2              5.4019080535       17.3426334581        6.2679990826  WT01      423             0.0000000000
      1346       429  TIP3      OH2           -12.5463621450      -17.9708633786       -9.4879915398  WT01      424             0.0000000000
      1347       429  TIP3      H1            -12.9790695374      -17.9767207421       -8.6341989333  WT01      424             0.0000000000
      1348       429  TIP3      H2            -11.7873298480      -17.4000652100       -9.3684455908  WT01      424             0.0000000000
      1349       430  TIP3      OH2            -3.6647731656       12.7593651760        5.7687420960  WT01      425             0.0000000000
      1350       430  TIP3      H1             -3.4727540883       11.9281354913        6.2028131689  WT01      425             0.0000000000
      1351       430  TIP3      H2             -4.0489194131       13.3052439842        6.4548031707  WT01      425             0.0000000000
      1352       431  TIP3      OH2            13.1895698194       -8.2339748213       -5.0922388369  WT01      426             0.0000000000
      1353       431  TIP3      H1             13.7288828986       -9.0004332906       -5.2869556275  WT01      426             0.0000000000
      1354       431  TIP3      H2             12.3069553462       -8.5852137604       -4.9745328030  WT01      426             0.0000000000
      1355       432  TIP3      OH2             9.3631583254       11.8683296613        9.1760818452  WT01      427             0.0000000000
      1356       432  TIP3      H1              8.9251383858       12.3269853533        9.8930234745  WT01      427             0.0000000000
      1357       432  TIP3      H2             10.2853063581       12.1090780230        9.2650483743  WT01      427             0.0000000000
      1358       433  TIP3      OH2           -16.1407897800        7.6161707372       17.2371941563  WT01      428             0.0000000000
      1359       433  TIP3      H1            -15.9879533811        8.5321752290       17.4691610014  WT01      428             0.0000000000
      1360       433  TIP3      H2            -15.3155552923        7.3261380741       16.8484771568  WT01      428             0.0000000000
      1361       434  TIP3      OH2             2.0858773024        5.7474698651      -12.5973639539  WT01      429             0.0000000000
      1362       434  TIP3      H1              2.2417723778        5.9497514005      -13.5198663750  WT01      429             0.0000000000
      1363       434  TIP3      H2              1.5866505204        4.9308935555      -12.6117709574  WT01      429             0.0000000000
      1364       435  TIP3      OH2             6.7098514565        9.7510316375      -12.0192530594  WT01      430             0.0000000000
      1365       435  TIP3      H1              5.9560303126        9.1683731296      -11.9270871374  WT01      430             0.0000000000
      1366       435  TIP3      H2              6.5049825499       10.4990724032      -11.4582757381  WT01      430             0.0000000000
      1367       436  TIP3      OH2           -18.6588475413       15.2514671166      -17.4690457934  WT01      431             0.0000000000
      1368       436  TIP3      H1            -19.4440323170       15.7613119462      -17.6684823219  WT01      431             0.0000000000
      1369       436  TIP3      H2            -18.3446418240       15.6095607108      -16.6388195857  WT01      431             0.0000000000
      1370       437  TIP3      OH2            12.7897444660       -8.3210765259      -15.8566005519  WT01      432             0.0000000000
      1371       437  TIP3      H1             13.2222367673       -9.1550263462      -15.6729979444  WT01      432             0.0000000000
      1372       437  TIP3      H2             12.6084528719       -8.3464891270      -16.7961320142  WT01      432             0.0000000000
      1373       438  TIP3      OH2           -11.7381100832      -15.8916391322      -17.6145813168  WT01      433             0.0000000000
      1374       438  TIP3      H1            -12.5683648173      -16.2300930546      -17.2793831217  WT01      433             0.0000000000
      1375       438  TIP3      H2            -11.2638021606      -16.6688650529      -17.9098501329  WT01      433             0.0000000000
      1376       439  TIP3      OH2             4.5900148564        9.7897399094       19.8489008234  WT01      434             0.0000000000
      1377       439  TIP3      H1              4.5769615227        8.8779762755       19.5577848717  WT01      434             0.0000000000
      1378       439  TIP3      H2              5.4572309435        9.9052721892       20.2372567963  WT01      434             0.0000000000
      1379       440  TIP3      OH2           -18.1870282822      -15.0706858247       17.4976820009  WT01      435             0.0000000000
      1380       440  TIP3      H1            -18.0467015573      -15.9347194320       17.1104015510  WT01      435             0.0000000000
      1381       440  TIP3      H2            -19.0829225890      -14.8401240343       17.2518233770  WT01      435             0.0000000000
      1382       441  TIP3      OH2            -9.1958140093        5.4479055705        3.3160276477  WT01      436             0.0000000000
      1383       441  TIP3      H1             -9.2468107346        6.3558458652        3.6148178186  WT01      436             0.0000000000
      1384       441  TIP3      H2             -9.9905511582        5.0379194395        3.6574014130  WT01      436             0.0000000000
      1385       442  TIP3      OH2            15.5861171932       15.5317176453       13.3944570392  WT01      437             0.0000000000
      1386       442  TIP3      H1             15.6321534720       16.1010203950       12.6263380047  WT01      437             0.0000000000
      1387       442  TIP3      H2             14.7427941851       15.7393450072       13.7968610572  WT01      437             0.0000000000
      1388       443  TIP3      OH2           -10.2597602977        4.7626247955       15.1573800916  WT01      438             0.0000000000
      1389       443  TIP3      H1            -10.6539371060        4.4474676361       15.9707265244  WT01      438             0.0000000000
      1390       443  TIP3      H2             -9.6449092694        4.0734639736       14.9058897627  WT01      438             0.0000000000
      1391       444  TIP3      OH2           -13.0642124899      -15.2175546798        7.6909365087  WT01      439             0.0000000000
      1392       444  TIP3      H1            -13.6829563061      -14.5391197372        7.9613323844  WT01      439             0.0000000000
      1393       444  TIP3      H2            -13.5225661481      -16.0409880118        7.8585708810  WT01      439             0.0000000000
      1394       445  TIP3      OH2            18.3303125010       17.5969004675       -8.6897713651  WT01      440             0.0000000000
      1395       445  TIP3      H1             18.6190967385       17.0493320116       -7.9596999567  WT01      440             0.0000000000
      1396       445  TIP3      H2             19.1288518803       18.0238469284       -9.0000670151  WT01      440             0.0000000000
      1397       446  TIP3      OH2            -1.6573920229      -19.3591930738       10.1739711712  WT01      441             0.0000000000
      1398       446  TIP3      H1             -0.7638229004      -19.0200245180       10.1217148311  WT01      441             0.0000000000
      1399       446  TIP3      H2             -1.8088953053      -19.4931847223       11.1095591172  WT01      441             0.0000000000
      1400       447  TIP3      OH2            -5.8084412189      -19.0487915507       -8.3122123913  WT01      442             0.0000000000
      1401       447  TIP3      H1             -5.4892433850      -18.3088866248       -7.7956030083  WT01      442             0.0000000000
      1402       447  TIP3      H2             -6.2565477943      -18.6464609607       -9.0562301360  WT01      442             0.0000000000
      1403       448  TIP3      OH2             9.1750683161       18.2445086542       -8.6739174272  WT01      443             0.0000000000
      1404       448  TIP3      H1              9.6683003311       18.4846454872       -9.4583205709  WT01      443             0.0000000000
      1405       448  TIP3      H2              8.8350034687       19.0748954887       -8.3406826516  WT01      443             0.0000000000
      1406       449  TIP3      OH2            18.7661388437        5.2780271544      -17.2811959791  WT01      444             0.0000000000
      1407       449  TIP3      H1             17.8685785135        5.2404324348      -17.6116561157  WT01      444             0.0000000000
      1408       449  TIP3      H2             19.1467838853        6.0459989819      -17.7072950702  WT01      444             0.0000000000
      1409       450  TIP3      OH2             5.6628941459      -18.8048507631      -19.3277430347  WT01      445             0.0000000000
      1410       450  TIP3      H1              6.5184843048      -18.4097290843      -19.1601836424  WT01      445             0.0000000000
      1411       450  TIP3      H2              5.8595281730      -19.7105891411      -19.5669184122  WT01      445             0.0000000000
      1412       451  TIP3      OH2            -7.9238702205       -4.4512000389       12.7017722509  WT01      446             0.0000000000
      1413       451  TIP3      H1             -8.7536359144       -4.4342995452       12.2248707123  WT01      446             0.0000000000
      1414       451  TIP3      H2             -7.4321314559       -3.7071252946       12.3542415712  WT01      446             0.0000000000
      1415       452  TIP3      OH2             7.0270599261       -2.2305606325       14.6434126404  WT01      447             0.0000000000
      1416       452  TIP3      H1              7.0969302404       -2.0877419156       13.6995096982  WT01      447             0.0000000000
      1417       452  TIP3      H2              7.5050776124       -3.0451470265       14.7989115447  WT01      447             0.0000000000
      1418       453  TIP3      OH2           -15.5422904489       12.7158522281        8.5062997722  WT01      448             0.0000000000
      1419       453  TIP3      H1            -16.1459026347       13.1952626101        9.0737941122  WT01      448             0.0000000000
      1420       453  TIP3      H2            -14.7221782329       12.6860389513        8.9990054984  WT01      448             0.0000000000
      1421       454  TIP3      OH2             8.5114712315       -7.9052784688      -18.0288266830  WT01      449             0.0000000000
      1422       454  TIP3      H1              9.4628437661       -8.0087957035      -18.0086699580  WT01      449             0.0000000000
      1423       454  TIP3      H2              8.2124672403       -8.5575345354      -18.6623805070  WT01      449             0.0000000000
      1424       455  TIP3      OH2            -5.9121629926      -13.8214621918      -14.1379954201  WT01      450             0.0000000000
      1425       455  TIP3      H1             -6.6264757739      -13.8780969975      -13.5033446812  WT01      450             0.0000000000
      1426       455  TIP3      H2             -5.3863335785      -14.6051415126      -13.9780518036  WT01      450             0.0000000000
      1427       456  TIP3      OH2            18.2630311700        4.7973152185       -6.6451360536  WT01      451             0.0000000000
      1428       456  TIP3      H1             18.3004713717        4.1273608765       -5.9625005565  WT01      451             0.0000000000
      1429       456  TIP3      H2             17.7667505059        4.3894145131       -7.3547516735  WT01      451             0.0000000000
      1430       457  TIP3      OH2            -0.2958324491      -15.0755970651       19.7791954953  WT01      452             0.0000000000
      1431       457  TIP3      H1             -0.5111989205      -15.8470457789       20.3033290431  WT01      452             0.0000000000
      1432       457  TIP3      H2             -0.9971736935      -15.0231834752       19.1298842560  WT01      452             0.0000000000
      1433       458  TIP3      OH2            14.1099957574      -17.2434003163       -9.9223338457  WT01      453             0.0000000000
      1434       458  TIP3      H1             13.6913535455      -16.3949989104       -9.7767812301  WT01      453             0.0000000000
      1435       458  TIP3      H2             14.7872157421      -17.0679075753      -10.5756386759  WT01      453             0.0000000000
      1436       459  TIP3      OH2           -19.7662406330        6.4492194961        3.1354712486  WT01      454             0.0000000000
      1437       459  TIP3      H1            -20.1459657243        6.7181375125        2.2989763194  WT01      454             0.0000000000
      1438       459  TIP3      H2            -18.8253064045        6.3994554259        2.9669538134  WT01      454             0.0000000000
      1439       460  TIP3      OH2           -15.0659231932       10.7330659277       11.1622998081  WT01      455             0.0000000000
      1440       460  TIP3      H1            -14.9268164180       11.6746875280       11.2634426667  WT01      455             0.0000000000
      1441       460  TIP3      H2            -15.9510895112       10.6581704330       10.8057846398  WT01      455             0.0000000000
      1442       461  TIP3      OH2            -2.7083154234      -10.9405722955      -16.8124348148  WT01      456             0.0000000000
      1443       461  TIP3      H1             -2.7893758411      -11.2828888600      -17.7026484910  WT01      456             0.0000000000
      1444       461  TIP3      H2             -2.7640395574      -11.7143768337      -16.2517627460  WT01      456             0.0000000000
      1445       462  TIP3      OH2            19.5716647336       12.6169158493      -18.2017663371  WT01      457             0.0000000000
      1446       462  TIP3      H1             20.2351029761       13.2885338590      -18.0436184360  WT01      457             0.0000000000
      1447       462  TIP3      H2             18.8917744460       13.0649848451      -18.7049712484  WT01      457             0.0000000000
      1448       463  TIP3      OH2           -14.8188980110       -0.7835529014       13.1367883381  WT01      458             0.0000000000
      1449       463  TIP3      H1            -15.0095592970        0.1014936350       12.8260268324  WT01      458             0.0000000000
      1450       463  TIP3      H2            -15.6713230044       -1.1378620411       13.3899058507  WT01      458             0.0000000000
      1451       464  TIP3      OH2            -6.5070249608       16.0695042150       18.2402594704  WT01      459             0.0000000000
      1452       464  TIP3      H1             -6.2438579890       15.1649737287       18.4099637879  WT01      459             0.0000000000
      1453       464  TIP3      H2             -6.5274910243       16.1384314466       17.2857637983  WT01      459             0.0000000000
      1454       465  TIP3      OH2             5.2695879776        9.1543658684      -16.5606969656  WT01      460             0.0000000000
      1455       465  TIP3      H1              4.7511165580        9.9103067883      -16.8363281027  WT01      460             0.0000000000
      1456       465  TIP3      H2              4.8144954636        8.8201877462      -15.7877496211  WT01      460             0.0000000000
      1457       466  TIP3      OH2           -10.9035641312      -14.9576664903      -12.5797154320  WT01      461             0.0000000000
      1458       466  TIP3      H1            -10.5747074123      -15.2621540841      -13.4255123194  WT01      461             0.0000000000
      1459       466  TIP3      H2            -10.6810676470      -15.6601083721      -11.9687305482  WT01      461             0.0000000000
      1460       467  TIP3      OH2           -16.2922275398       14.5648911082      -12.8517653709  WT01      462             0.0000000000
      1461       467  TIP3      H1            -15.7016850982       13.8878058235      -13.1819879517  WT01      462             0.0000000000
      1462       467  TIP3      H2            -16.7626490648       14.1431621796      -12.1326825449  WT01      462             0.0000000000
      1463       468  TIP3      OH2           -14.0584988214        6.1905823615       -7.1223435438  WT01      463             0.0000000000
      1464       468  TIP3      H1            -13.5214559140        6.6671324117       -7.7553654837  WT01      463             0.0000000000
      1465       468  TIP3      H2            -14.8306811364        5.9193653762       -7.6187381753  WT01      463             0.0000000000
      1466       469  TIP3      OH2            12.6491342089      -18.4198223680       -5.4115274592  WT01      464             0.0000000000
      1467       469  TIP3      H1             12.4351746147      -18.1258808286       -6.2969942709  WT01      464             0.0000000000
      1468       469  TIP3      H2             13.5606730262      -18.1565536338       -5.2849637632  WT01      464             0.0000000000
      1469       470  TIP3      OH2            -1.8857531541       17.4953911032        4.0103483167  WT01      465             0.0000000000
      1470       470  TIP3      H1             -2.1910787356       16.6125697722        3.8014593566  WT01      465             0.0000000000
      1471       470  TIP3      H2             -1.3115600072       17.3779411901        4.7671439028  WT01      465             0.0000000000
      1472       471  TIP3      OH2             3.3443484153       -7.8684059981        1.0265175158  WT01      466             0.0000000000
      1473       471  TIP3      H1              3.8379139983       -7.1348879537        1.3933636754  WT01      466             0.0000000000
      1474       471  TIP3      H2              2.4780853550       -7.7993959369        1.4278375038  WT01      466             0.0000000000
      1475       472  TIP3      OH2            19.6523909613       18.7261261095        0.0289224265  WT01      467             0.0000000000
      1476       472  TIP3      H1             18.7095051226       18.7088102840       -0.1350844894  WT01      467             0.0000000000
      1477       472  TIP3      H2             20.0285839937       19.0916165455       -0.7717818601  WT01      467             0.0000000000
      1478       473  TIP3      OH2           -19.6184113395      -18.3870794171        1.4793597025  WT01      468             0.0000000000
      1479       473  TIP3      H1            -19.2264828688      -19.1749371884        1.8560611985  WT01      468             0.0000000000
      1480       473  TIP3      H2            -20.5211479311      -18.3924305683        1.7975889006  WT01      468             0.0000000000
      1481       474  TIP3      OH2             0.0583272146      -11.3850636095       -5.8478632215  WT01      469             0.0000000000
      1482       474  TIP3      H1             -0.0379155458      -12.1645439654       -6.3950190647  WT01      469             0.0000000000
      1483       474  TIP3      H2             -0.6632190321      -10.8148878326       -6.1133861175  WT01      469             0.0000000000
      1484       475  TIP3      OH2            -6.4771088818        9.0192262368        2.4347974433  WT01      470             0.0000000000
      1485       475  TIP3      H1             -6.3430411300        9.0494730054        1.4875156574  WT01      470             0.0000000000
      1486       475  TIP3      H2             -5.5960514885        8.9349175529        2.7992994687  WT01      470             0.0000000000
      1487       476  TIP3      OH2            18.0993959327        9.4992565722      -11.0484164805  WT01      471             0.0000000000
      1488       476  TIP3      H1             18.4293575681        9.1432927308      -11.8734297373  WT01      471             0.0000000000
      1489       476  TIP3      H2             17.1495325436        9.3954233695      -11.1050735104  WT01      471             0.0000000000
      1490       477  TIP3      OH2            18.9937206589       -9.2566811066       -0.8028360743  WT01      472             0.0000000000
      1491       477  TIP3      H1             19.7920401122       -9.6113024251       -0.4114774381  WT01      472             0.0000000000
      1492       477  TIP3      H2             18.3471406693       -9.2862350071       -0.0976462451  WT01      472             0.0000000000
      1493       478  TIP3      OH2           -15.0922056134       18.1847145952       -3.5090742152  WT01      473             0.0000000000
      1494       478  TIP3      H1            -15.7639866464       18.6943395712       -3.9620912553  WT01      473             0.0000000000
      1495       478  TIP3      H2            -14.4592461283       17.9616204365       -4.1915865577  WT01      473             0.0000000000
      1496       479  TIP3      OH2            -4.8073939484      -14.0037692483       -6.9331901609  WT01      474             0.0000000000
      1497       479  TIP3      H1             -5.6586511278      -13.7233316702       -7.2692672210  WT01      474             0.0000000000
      1498       479  TIP3      H2             -4.7669047564      -13.6400404124       -6.0487164358  WT01      474             0.0000000000
      1499       480  TIP3      OH2             3.5801244951      -17.4669533287       -5.0380400150  WT01      475             0.0000000000
      1500       480  TIP3      H1              3.3285073368      -18.1575036335       -5.6512780545  WT01      475             0.0000000000
      1501       480  TIP3      H2              3.6408513774      -17.9086283437       -4.1910056368  WT01      475             0.0000000000
      1502       481  TIP3      OH2            -5.2385218083      -12.2125805871      -11.4370995844  WT01      476             0.0000000000
      1503       481  TIP3      H1             -5.6960586427      -13.0483610591      -11.5285482517  WT01      476             0.0000000000
      1504       481  TIP3      H2             -5.7063211103      -11.7583123525      -10.7363599786  WT01      476             0.0000000000
      1505       482  TIP3      OH2            16.9697757640      -11.4585487735      -16.5866123496  WT01      477             0.0000000000
      1506       482  TIP3      H1             17.3598553911      -11.5048762529      -15.7137300779  WT01      477             0.0000000000
      1507       482  TIP3      H2             16.1630869798      -11.9689912027      -16.5163731660  WT01      477             0.0000000000
      1508       483  TIP3      OH2            -8.9623459849       14.1954402866        3.0066703314  WT01      478             0.0000000000
      1509       483  TIP3      H1             -8.3831492182       14.4072420535        2.2746164208  WT01      478             0.0000000000
      1510       483  TIP3      H2             -9.2059388097       15.0452891572        3.3736188891  WT01      478             0.0000000000
      1511       484  TIP3      OH2           -16.7146689215       -8.5303360359       -2.3824516818  WT01      479             0.0000000000
      1512       484  TIP3      H1            -16.4521658673       -8.7270637457       -3.2816858925  WT01      479             0.0000000000
      1513       484  TIP3      H2            -17.2087292006       -7.7132818531       -2.4499699310  WT01      479             0.0000000000
      1514       485  TIP3      OH2            -1.6738923655       11.2173790198       -7.2016260378  WT01      480             0.0000000000
      1515       485  TIP3      H1             -2.5985691901       11.1924875949       -7.4477662378  WT01      480             0.0000000000
      1516       485  TIP3      H2             -1.5954046742       11.9894513410       -6.6412905808  WT01      480             0.0000000000
      1517       486  TIP3      OH2             0.1625214336        8.8566572561       -7.1217865436  WT01      481             0.0000000000
      1518       486  TIP3      H1             -0.5425372579        9.4924209541       -7.2439690829  WT01      481             0.0000000000
      1519       486  TIP3      H2              0.4350982936        8.9725509291       -6.2115655139  WT01      481             0.0000000000
      1520       487  TIP3      OH2             1.2651017733        8.0947456230       -2.1920622092  WT01      482             0.0000000000
      1521       487  TIP3      H1              0.4535046519        7.8781371615       -1.7331257234  WT01      482             0.0000000000
      1522       487  TIP3      H2              1.7363927180        8.6687673636       -1.5882280450  WT01      482             0.0000000000
      1523       488  TIP3      OH2            15.6931702220       -5.5349991530       -9.4013460255  WT01      483             0.0000000000
      1524       488  TIP3      H1             16.1719980785       -5.4531886868      -10.2261264463  WT01      483             0.0000000000
      1525       488  TIP3      H2             15.7019061424       -4.6527077814       -9.0302430341  WT01      483             0.0000000000
      1526       489  TIP3      OH2            -1.0189705087      -12.9927243416       -3.6286364399  WT01      484             0.0000000000
      1527       489  TIP3      H1             -0.3749712019      -13.5471954227       -3.1881156980  WT01      484             0.0000000000
      1528       489  TIP3      H2             -0.4966005209      -12.4075421726       -4.1772011453  WT01      484             0.0000000000
      1529       490  TIP3      OH2            -0.6515800127      -14.0929244791        3.2551257062  WT01      485             0.0000000000
      1530       490  TIP3      H1             -0.7986303989      -14.9229709984        3.7085909978  WT01      485             0.0000000000
      1531       490  TIP3      H2             -1.4866000326      -13.6301914390        3.3247784946  WT01      485             0.0000000000
      1532       491  TIP3      OH2           -16.4397547174       15.9478711907       -8.4913179320  WT01      486             0.0000000000
      1533       491  TIP3      H1            -15.6847832621       15.5422106543       -8.0650674870  WT01      486             0.0000000000
      1534       491  TIP3      H2            -16.9568627733       15.2106738722       -8.8159272096  WT01      486             0.0000000000
      1535       492  TIP3      OH2           -18.9286089768       -1.2460891782        7.8995894333  WT01      487             0.0000000000
      1536       492  TIP3      H1            -19.4592313946       -2.0426975244        7.8902725912  WT01      487             0.0000000000
      1537       492  TIP3      H2            -19.2686616327       -0.7227254669        7.1738577832  WT01      487             0.0000000000
      1538       493  TIP3      OH2            12.4124795016      -18.3956551852      -15.2338533711  WT01      488             0.0000000000
      1539       493  TIP3      H1             12.2372893099      -17.7435844449      -14.5553668514  WT01      488             0.0000000000
      1540       493  TIP3      H2             13.1843209771      -18.0635352998      -15.6923170331  WT01      488             0.0000000000
      1541       494  TIP3      OH2           -16.8237585747       13.5743822090      -18.6132631612  WT01      489             0.0000000000
      1542       494  TIP3      H1            -17.5578675478       13.9944345618      -18.1650758706  WT01      489             0.0000000000
      1543       494  TIP3      H2            -16.2351730103       13.3041343790      -17.9084476144  WT01      489             0.0000000000
      1544       495  TIP3      OH2            -8.7814722017       13.8509215590      -14.7504020135  WT01      490             0.0000000000
      1545       495  TIP3      H1             -7.9608589738       13.5107364234      -15.1069126230  WT01      490             0.0000000000
      1546       495  TIP3      H2             -9.4010060121       13.7940681274      -15.4778477889  WT01      490             0.0000000000
      1547       496  TIP3      OH2            -3.2731404363       11.7599438901      -10.9382990984  WT01      491             0.0000000000
      1548       496  TIP3      H1             -2.6190203817       12.4426259665      -10.7889540357  WT01      491             0.0000000000
      1549       496  TIP3      H2             -4.0574972801       12.2350300513      -11.2127244836  WT01      491             0.0000000000
      1550       497  TIP3      OH2            -6.3596691311        6.0072748703        4.1648416202  WT01      492             0.0000000000
      1551       497  TIP3      H1             -7.0026717838        6.5320232595        3.6879574334  WT01      492             0.0000000000
      1552       497  TIP3      H2             -6.5483548797        6.1770546207        5.0877740856  WT01      492             0.0000000000
      1553       498  TIP3      OH2            -4.7387766690       -9.7424352865       16.7560989283  WT01      493             0.0000000000
      1554       498  TIP3      H1             -4.5746150412       -9.2412738240       15.9572748178  WT01      493             0.0000000000
      1555       498  TIP3      H2             -4.3382278834       -9.2220088214       17.4524815644  WT01      493             0.0000000000
      1556       499  TIP3      OH2           -11.1424336484       19.6485015367        2.5688332049  WT01      494             0.0000000000
      1557       499  TIP3      H1            -10.3365700063       19.2140155565        2.2894812149  WT01      494             0.0000000000
      1558       499  TIP3      H2            -11.8297383218       18.9996864114        2.4175618259  WT01      494             0.0000000000
      1559       500  TIP3      OH2           -15.3612218336        7.2086858008      -10.9646402593  WT01      495             0.0000000000
      1560       500  TIP3      H1            -15.5759583705        6.3946172375      -10.5092147384  WT01      495             0.0000000000
      1561       500  TIP3      H2            -15.3229270993        6.9635655230      -11.8891300503  WT01      495             0.0000000000
      1562       501  TIP3      OH2           -13.1270228849       14.9629211838      -18.5723530121  WT01      496             0.0000000000
      1563       501  TIP3      H1            -12.9910414804       15.2136864215      -19.4860584703  WT01      496             0.0000000000
      1564       501  TIP3      H2            -13.1615629484       15.7936520001      -18.0980903149  WT01      496             0.0000000000
      1565       502  TIP3      OH2            15.6105977604       -9.6697675307       -8.6120164953  WT01      497             0.0000000000
      1566       502  TIP3      H1             15.0197048327      -10.2443383933       -8.1252458276  WT01      497             0.0000000000
      1567       502  TIP3      H2             15.0847066657       -9.3503175194       -9.3452436483  WT01      497             0.0000000000
      1568       503  TIP3      OH2             0.8964600844       15.3218247994      -13.4835505791  WT01      498             0.0000000000
      1569       503  TIP3      H1              1.1005206044       15.0038697669      -12.6040645288  WT01      498             0.0000000000
      1570       503  TIP3      H2              0.9616405794       14.5459697563      -14.0403559905  WT01      498             0.0000000000
      1571       504  TIP3      OH2            15.6833279895      -19.6601457321       14.4460274227  WT01      499             0.0000000000
      1572       504  TIP3      H1             15.1598169952      -18.8612193155       14.5083542280  WT01      499             0.0000000000
      1573       504  TIP3      H2             16.5903316793      -19.3548656219       14.4655254233  WT01      499             0.0000000000
      1574       505  TIP3      OH2           -19.2407211597       18.9076974346      -18.6845818309  WT01      500             0.0000000000
      1575       505  TIP3      H1            -18.4078973860       19.3239887856      -18.9067031584  WT01      500             0.0000000000
      1576       505  TIP3      H2            -19.3944294036       19.1505576187      -17.7715514273  WT01      500             0.0000000000
      1577       506  TIP3      OH2            17.3728989156       12.9754327034       15.1496040302  WT01      501             0.0000000000
      1578       506  TIP3      H1             17.3179435284       12.9369105725       14.1947596649  WT01      501             0.0000000000
      1579       506  TIP3      H2             18.2842770842       13.2070783137       15.3283831008  WT01      501             0.0000000000
      1580       507  TIP3      OH2            10.4062838870      -14.8364557906      -14.7192745439  WT01      502             0.0000000000
      1581       507  TIP3      H1              9.9462900290      -14.4498913841      -13.9741534657  WT01      502             0.0000000000
      1582       507  TIP3      H2              9.7314123239      -14.9409224638      -15.3899957218  WT01      502             0.0000000000
      1583       508  TIP3      OH2            16.0496723586      -16.7927330695       -0.1942414240  WT01      503             0.0000000000
      1584       508  TIP3      H1             16.3469653955      -16.0435077111        0.3220046643  WT01      503             0.0000000000
      1585       508  TIP3      H2             15.5706893564      -17.3388109548        0.4291413138  WT01      503             0.0000000000
      1586       509  TIP3      OH2           -10.3411010628        0.8987621321      -18.2976149673  WT01      504             0.0000000000
      1587       509  TIP3      H1            -10.2162660458        0.0235799861      -17.9305942038  WT01      504             0.0000000000
      1588       509  TIP3      H2            -11.1073137979        1.2440806638      -17.8394610987  WT01      504             0.0000000000
      1589       510  TIP3      OH2           -11.1841112952      -11.1694480151        6.3990268310  WT01      505             0.0000000000
      1590       510  TIP3      H1            -10.6172902877      -10.9042017005        5.6747408730  WT01      505             0.0000000000
      1591       510  TIP3      H2            -10.9188140049      -10.6097196962        7.1287893731  WT01      505             0.0000000000
      1592       511  TIP3      OH2            18.6253084629      -19.8207234341       -7.5289198668  WT01      506             0.0000000000
      1593       511  TIP3      H1             17.9162755930      -20.3212435239       -7.9326324381  WT01      506             0.0000000000
      1594       511  TIP3      H2             18.3858722049      -18.9054107891       -7.6741949545  WT01      506             0.0000000000
      1595       512  TIP3      OH2           -18.4262127239       10.1737135266        3.3056128326  WT01      507             0.0000000000
      1596       512  TIP3      H1            -18.5420473484        9.7463203342        4.1542288882  WT01      507             0.0000000000
      1597       512  TIP3      H2            -18.4008717284       11.1086582558        3.5092497603  WT01      507             0.0000000000
      1598       513  TIP3      OH2             2.0990607412        2.9867644691      -15.3208166152  WT01      508             0.0000000000
      1599       513  TIP3      H1              1.2846805056        3.4537914613      -15.5076385398  WT01      508             0.0000000000
      1600       513  TIP3      H2              1.8163530570        2.1429602117      -14.9682509453  WT01      508             0.0000000000
      1601       514  TIP3      OH2            17.3227307284       17.9617830497       -3.2065856191  WT01      509             0.0000000000
      1602       514  TIP3      H1             17.8712322447       17.1801446866       -3.2730639389  WT01      509             0.0000000000
      1603       514  TIP3      H2             17.8271927512       18.6469635708       -3.6450802395  WT01      509             0.0000000000
      1604       515  TIP3      OH2            17.7333055128       14.4814375826        6.8764843612  WT01      510             0.0000000000
      1605       515  TIP3      H1             16.8365733072       14.3935932962        6.5533952962  WT01      510             0.0000000000
      1606       515  TIP3      H2             17.7443593994       13.9815555042        7.6927119829  WT01      510             0.0000000000
      1607       516  TIP3      OH2           -11.5970721487       14.5182171045        4.6267571969  WT01      511             0.0000000000
      1608       516  TIP3      H1            -12.4183493177       14.9175992312        4.9135141314  WT01      511             0.0000000000
      1609       516  TIP3      H2            -11.0008556974       15.2569803759        4.5043374960  WT01      511             0.0000000000
      1610       517  TIP3      OH2            17.6083076620       14.4445403896       -6.9782982967  WT01      512             0.0000000000
      1611       517  TIP3      H1             17.8459133625       14.0635145323       -7.8236352935  WT01      512             0.0000000000
      1612       517  TIP3      H2             18.4422704702       14.5536019804       -6.5213044073  WT01      512             0.0000000000
      1613       518  TIP3      OH2            -6.0420956646        4.0203352106       -5.0267766803  WT01      513             0.0000000000
      1614       518  TIP3      H1             -6.6119650419        3.2689895171       -5.1909727605  WT01      513             0.0000000000
      1615       518  TIP3      H2             -6.6337324270        4.7727365926       -5.0172944441  WT01      513             0.0000000000
      1616       519  TIP3      OH2            -5.9452657449       13.0556696017      -18.1067784457  WT01      514             0.0000000000
      1617       519  TIP3      H1             -6.6065655324       12.5551832061      -18.5847196241  WT01      514             0.0000000000
      1618       519  TIP3      H2             -6.0921263712       12.8312381758      -17.1879235592  WT01      514             0.0000000000
      1619       520  TIP3      OH2            -6.0387994431       12.6291949244      -15.3198736193  WT01      515             0.0000000000
      1620       520  TIP3      H1             -5.2045859098       12.8412854062      -14.9011407458  WT01      515             0.0000000000
      1621       520  TIP3      H2             -6.3623487885       11.8678760700      -14.8382708431  WT01      515             0.0000000000
      1622       521  TIP3      OH2            -9.2977117426       15.9143920637      -12.8092487023  WT01      516             0.0000000000
      1623       521  TIP3      H1             -8.8243582796       15.4403504462      -13.4929539422  WT01      516             0.0000000000
      1624       521  TIP3      H2             -8.6842157248       16.5878438356      -12.5154508836  WT01      516             0.0000000000
      1625       522  TIP3      OH2           -16.6796680208      -14.2893596848       -9.1294123543  WT01      517             0.0000000000
      1626       522  TIP3      H1            -16.0728375114      -14.1253243227       -8.4075529885  WT01      517             0.0000000000
      1627       522  TIP3      H2            -16.1745259561      -14.8098909502       -9.7540006245  WT01      517             0.0000000000
      1628       523  TIP3      OH2             0.0486240780       14.6247899449      -17.1440949622  WT01      518             0.0000000000
      1629       523  TIP3      H1              0.4065087624       14.2916777473      -17.9670084616  WT01      518             0.0000000000
      1630       523  TIP3      H2             -0.8771275248       14.3827866494      -17.1695937051  WT01      518             0.0000000000
      1631       524  TIP3      OH2            16.8534416604      -13.2390069477       -3.6997633122  WT01      519             0.0000000000
      1632       524  TIP3      H1             17.5824877276      -13.4651789234       -4.2773184009  WT01      519             0.0000000000
      1633       524  TIP3      H2             17.1995423638      -12.5471090696       -3.1360936923  WT01      519             0.0000000000
      1634       525  TIP3      OH2           -18.3025383420        9.7071364524        0.6625264436  WT01      520             0.0000000000
      1635       525  TIP3      H1            -18.2326534069        9.8876329990        1.5999531893  WT01      520             0.0000000000
      1636       525  TIP3      H2            -18.0474509640       10.5275352881        0.2404980192  WT01      520             0.0000000000
      1637       526  TIP3      OH2           -17.4858827381      -17.6384653813      -12.5338420632  WT01      521             0.0000000000
      1638       526  TIP3      H1            -18.2830548568      -18.1346885784      -12.3480707988  WT01      521             0.0000000000
      1639       526  TIP3      H2            -17.7943262796      -16.8413783273      -12.9648253820  WT01      521             0.0000000000
      1640       527  TIP3      OH2            16.3358319805       16.0702263501        8.6546658158  WT01      522             0.0000000000
      1641       527  TIP3      H1             17.0989302073       15.6032492846        8.3143052312  WT01      522             0.0000000000
      1642       527  TIP3      H2             15.6590017629       15.9402752753        7.9904027762  WT01      522             0.0000000000
      1643       528  TIP3      OH2            14.1639385626        7.9138123125       10.8277947201  WT01      523             0.0000000000
      1644       528  TIP3      H1             14.3079427780        8.5751957578       11.5046008484  WT01      523             0.0000000000
      1645       528  TIP3      H2             13.3288198895        8.1571371515       10.4282929860  WT01      523             0.0000000000
      1646       529  TIP3      OH2             5.5630283026       18.1664548773       -4.3823008249  WT01      524             0.0000000000
      1647       529  TIP3      H1              5.9945992138       17.5749469178       -4.9988206491  WT01      524             0.0000000000
      1648       529  TIP3      H2              5.8671000328       19.0385903331       -4.6336013238  WT01      524             0.0000000000
      1649       530  TIP3      OH2            15.5459392384       -3.3894308365       14.4721926266  WT01      525             0.0000000000
      1650       530  TIP3      H1             14.7645465472       -3.4113547454       15.0246205544  WT01      525             0.0000000000
      1651       530  TIP3      H2             15.7705403848       -2.4609752383       14.4109036530  WT01      525             0.0000000000
      1652       531  TIP3      OH2           -10.2212617645       13.7536845473       13.1521672477  WT01      526             0.0000000000
      1653       531  TIP3      H1            -10.0413649446       12.8224908969       13.0227557699  WT01      526             0.0000000000
      1654       531  TIP3      H2             -9.3933931604       14.1165365456       13.4671336155  WT01      526             0.0000000000
      1655       532  TIP3      OH2            19.3200170535        1.5870937381        8.9629753726  WT01      527             0.0000000000
      1656       532  TIP3      H1             19.5880339430        1.0238157968        9.6890034154  WT01      527             0.0000000000
      1657       532  TIP3      H2             20.1423568062        1.8817601381        8.5716176653  WT01      527             0.0000000000
      1658       533  TIP3      OH2            -2.0194839891      -18.8211353084       13.3267327885  WT01      528             0.0000000000
      1659       533  TIP3      H1             -2.5076208121      -19.2366235908       14.0375940551  WT01      528             0.0000000000
      1660       533  TIP3      H2             -2.5707117656      -18.0877603771       13.0537108854  WT01      528             0.0000000000
      1661       534  TIP3      OH2            11.5335277816        9.1907435934       -9.6990564955  WT01      529             0.0000000000
      1662       534  TIP3      H1             10.9404386996        9.9352265162       -9.8001620320  WT01      529             0.0000000000
      1663       534  TIP3      H2             11.3983700410        8.6672436917      -10.4889375303  WT01      529             0.0000000000
      1664       535  TIP3      OH2            11.9397870807      -19.3887696980       14.4508600854  WT01      530             0.0000000000
      1665       535  TIP3      H1             12.6609661490      -19.2703189591       13.8327161014  WT01      530             0.0000000000
      1666       535  TIP3      H2             11.8239964714      -20.3373612980       14.5056170223  WT01      530             0.0000000000
      1667       536  TIP3      OH2           -14.7741152565       14.3603141466       -6.8559283601  WT01      531             0.0000000000
      1668       536  TIP3      H1            -14.3063250771       14.4541715333       -6.0261121455  WT01      531             0.0000000000
      1669       536  TIP3      H2            -14.0910893558       14.4166158374       -7.5241630117  WT01      531             0.0000000000
      1670       537  TIP3      OH2             3.8365394540       -7.9910960808      -14.6721047919  WT01      532             0.0000000000
      1671       537  TIP3      H1              3.5387782761       -7.2990371608      -14.0816604311  WT01      532             0.0000000000
      1672       537  TIP3      H2              4.5598611791       -7.5963091149      -15.1591168498  WT01      532             0.0000000000
      1673       538  TIP3      OH2            -6.6561379645      -17.0824547781        2.6341178689  WT01      533             0.0000000000
      1674       538  TIP3      H1             -6.1106445008      -17.6833522474        3.1416520287  WT01      533             0.0000000000
      1675       538  TIP3      H2             -7.1823997816      -17.6519339180        2.0728925842  WT01      533             0.0000000000
      1676       539  TIP3      OH2             2.3191315311       12.5748958421       -3.1709835193  WT01      534             0.0000000000
      1677       539  TIP3      H1              1.5347588739       12.5991500408       -3.7190739127  WT01      534             0.0000000000
      1678       539  TIP3      H2              2.3930549293       13.4617222535       -2.8184128762  WT01      534             0.0000000000
      1679       540  TIP3      OH2            -6.5115046209      -17.2400119249        7.7461643636  WT01      535             0.0000000000
      1680       540  TIP3      H1             -6.2768616288      -16.4386763645        7.2781517602  WT01      535             0.0000000000
      1681       540  TIP3      H2             -6.8000893427      -17.8425367103        7.0606612254  WT01      535             0.0000000000
      1682       541  TIP3      OH2           -17.6447351551       -7.5180976770       -9.4137997033  WT01      536             0.0000000000
      1683       541  TIP3      H1            -18.2588356062       -7.1010102504       -8.8095228416  WT01      536             0.0000000000
      1684       541  TIP3      H2            -18.0733478382       -7.4625475676      -10.2678706396  WT01      536             0.0000000000
      1685       542  TIP3      OH2           -14.8699353140        5.2081190040       -3.5841187063  WT01      537             0.0000000000
      1686       542  TIP3      H1            -14.9702501293        4.6023823238       -4.3184563828  WT01      537             0.0000000000
      1687       542  TIP3      H2            -15.3194818449        6.0045030444       -3.8668061448  WT01      537             0.0000000000
      1688       543  TIP3      OH2           -10.0921782039      -12.3611446951        9.4285480673  WT01      538             0.0000000000
      1689       543  TIP3      H1             -9.9400069105      -12.8564630930        8.6237279674  WT01      538             0.0000000000
      1690       543  TIP3      H2             -9.3355457279      -11.7790766732        9.4988042069  WT01      538             0.0000000000
      1691       544  TIP3      OH2            18.9921793950        7.1444566734       14.3663468984  WT01      539             0.0000000000
      1692       544  TIP3      H1             19.5355051048        7.5293728633       15.0540012527  WT01      539             0.0000000000
      1693       544  TIP3      H2             19.4916796049        6.3868888482       14.0616793066  WT01      539             0.0000000000
      1694       545  TIP3      OH2            13.4033361897        9.1940127408        5.4865738428  WT01      540             0.0000000000
      1695       545  TIP3      H1             14.1359226936        9.0586729591        4.8855480789  WT01      540             0.0000000000
      1696       545  TIP3      H2             12.8563894002        9.8499873314        5.0543952258  WT01      540             0.0000000000
      1697       546  TIP3      OH2            -7.1068504577        1.1715099409      -15.8337086011  WT01      541             0.0000000000
      1698       546  TIP3      H1             -6.5339172069        0.4136767413      -15.7167977688  WT01      541             0.0000000000
      1699       546  TIP3      H2             -7.9571299634        0.8829726176      -15.5020419216  WT01      541             0.0000000000
      1700       547  TIP3      OH2            19.7455980002        4.6275492410        5.0369549210  WT01      542             0.0000000000
      1701       547  TIP3      H1             20.2724935993        4.0048764061        4.5360643348  WT01      542             0.0000000000
      1702       547  TIP3      H2             19.7948334338        5.4414465483        4.5355779608  WT01      542             0.0000000000
      1703       548  TIP3      OH2            -9.1048218944       11.1858096374       -6.9169908527  WT01      543             0.0000000000
      1704       548  TIP3      H1             -9.8339430993       11.8036011331       -6.8626976907  WT01      543             0.0000000000
      1705       548  TIP3      H2             -8.3567630906       11.6655898241       -6.5613916265  WT01      543             0.0000000000
      1706       549  TIP3      OH2            -4.9847773202       18.4393495987      -10.6358416646  WT01      544             0.0000000000
      1707       549  TIP3      H1             -4.1865794721       18.0283983306      -10.3038310299  WT01      544             0.0000000000
      1708       549  TIP3      H2             -5.2150087745       19.0883144286       -9.9709582628  WT01      544             0.0000000000
      1709       550  TIP3      OH2           -17.7257646145       16.5600910448       11.5358744121  WT01      545             0.0000000000
      1710       550  TIP3      H1            -18.1285671040       16.4088754304       12.3909275119  WT01      545             0.0000000000
      1711       550  TIP3      H2            -17.1866302560       17.3413196338       11.6593565818  WT01      545             0.0000000000
      1712       551  TIP3      OH2             8.9923997644      -17.4463873862      -15.5471948312  WT01      546             0.0000000000
      1713       551  TIP3      H1              8.2468226135      -17.9833172663      -15.2787682547  WT01      546             0.0000000000
      1714       551  TIP3      H2              9.5993940305      -17.4921211171      -14.8084809503  WT01      546             0.0000000000
      1715       552  TIP3      OH2           -13.9276362812        3.5430513737        2.8232627733  WT01      547             0.0000000000
      1716       552  TIP3      H1            -13.4378298175        3.7135255502        2.0187380724  WT01      547             0.0000000000
      1717       552  TIP3      H2            -13.7780602817        2.6148878213        3.0031828985  WT01      547             0.0000000000
      1718       553  TIP3      OH2           -16.7000920696       18.9158392745       12.5893406743  WT01      548             0.0000000000
      1719       553  TIP3      H1            -16.0414723625       18.4732987964       13.1247001961  WT01      548             0.0000000000
      1720       553  TIP3      H2            -17.4547934037       19.0140170354       13.1698739073  WT01      548             0.0000000000
      1721       554  TIP3      OH2           -16.2978691966        8.3054723450        2.3110584584  WT01      549             0.0000000000
      1722       554  TIP3      H1            -17.2091313778        8.5892414138        2.3839156051  WT01      549             0.0000000000
      1723       554  TIP3      H2            -15.8794074840        8.6356273199        3.1061177636  WT01      549             0.0000000000
      1724       555  TIP3      OH2            13.0589137187      -15.3184946370      -15.3895772907  WT01      550             0.0000000000
      1725       555  TIP3      H1             12.1776177765      -15.1926654116      -15.0378440406  WT01      550             0.0000000000
      1726       555  TIP3      H2             13.0572961141      -14.8392571170      -16.2181668115  WT01      550             0.0000000000
      1727       556  TIP3      OH2            -7.6924740300       10.2018965976       12.6243388411  WT01      551             0.0000000000
      1728       556  TIP3      H1             -6.7470007718       10.0527995489       12.6334052070  WT01      551             0.0000000000
      1729       556  TIP3      H2             -7.8558111512       10.6565813685       11.7980129036  WT01      551             0.0000000000
      1730       557  TIP3      OH2            -7.9581085567       14.0356098577       11.0088150217  WT01      552             0.0000000000
      1731       557  TIP3      H1             -7.8193816986       14.1653907059       11.9469747103  WT01      552             0.0000000000
      1732       557  TIP3      H2             -7.1159248313       13.7177039440       10.6834011102  WT01      552             0.0000000000
      1733       558  TIP3      OH2            17.7823557981       10.0506437085        5.0205673863  WT01      553             0.0000000000
      1734       558  TIP3      H1             18.0289243439        9.2009534218        5.3858921457  WT01      553             0.0000000000
      1735       558  TIP3      H2             18.4614094964       10.6506465388        5.3289737570  WT01      553             0.0000000000
      1736       559  TIP3      OH2           -11.6982825124      -19.4439236428        5.4454188286  WT01      554             0.0000000000
      1737       559  TIP3      H1            -11.1648556965      -19.6719617875        4.6840475344  WT01      554             0.0000000000
      1738       559  TIP3      H2            -11.3156289453      -18.6292720513        5.7712268137  WT01      554             0.0000000000
      1739       560  TIP3      OH2            -5.1024182306       13.8120622953       18.6269096027  WT01      555             0.0000000000
      1740       560  TIP3      H1             -4.6999484402       13.1509117196       19.1900523866  WT01      555             0.0000000000
      1741       560  TIP3      H2             -4.6210512871       13.7498240607       17.8018980398  WT01      555             0.0000000000
      1742       561  TIP3      OH2           -11.8077021840       12.6639818192        2.6462080730  WT01      556             0.0000000000
      1743       561  TIP3      H1            -12.5935861851       12.2967217116        3.0508537961  WT01      556             0.0000000000
      1744       561  TIP3      H2            -11.3899178196       13.1662568178        3.3457849891  WT01      556             0.0000000000
      1745       562  TIP3      OH2           -16.9903258586      -11.6714451830       -7.2406525743  WT01      557             0.0000000000
      1746       562  TIP3      H1            -16.5111806788      -12.4647519379       -7.0012447625  WT01      557             0.0000000000
      1747       562  TIP3      H2            -16.6467998469      -11.4343515436       -8.1020516087  WT01      557             0.0000000000
      1748       563  TIP3      OH2            19.0340286975       -0.3633288464       19.2045279503  WT01      558             0.0000000000
      1749       563  TIP3      H1             19.6428213205        0.3166051535       18.9159224947  WT01      558             0.0000000000
      1750       563  TIP3      H2             18.6955134273       -0.0431703133       20.0406725170  WT01      558             0.0000000000
      1751       564  TIP3      OH2           -14.5324642922       15.2709696325       17.3039664083  WT01      559             0.0000000000
      1752       564  TIP3      H1            -14.6950755200       14.3315292811       17.3890618008  WT01      559             0.0000000000
      1753       564  TIP3      H2            -15.3819428003       15.6779528555       17.4742095622  WT01      559             0.0000000000
      1754       565  TIP3      OH2            19.4662357067      -13.0932552777        5.4553654941  WT01      560             0.0000000000
      1755       565  TIP3      H1             20.0145728345      -12.3101444589        5.5032784431  WT01      560             0.0000000000
      1756       565  TIP3      H2             19.2970723747      -13.3240291572        6.3687980284  WT01      560             0.0000000000
      1757       566  TIP3      OH2             6.0330917583        5.9595125904        2.3060512593  WT01      561             0.0000000000
      1758       566  TIP3      H1              6.3587366190        5.8087051154        1.4186706525  WT01      561             0.0000000000
      1759       566  TIP3      H2              5.1431370131        6.2894912963        2.1822513557  WT01      561             0.0000000000
      1760       567  TIP3      OH2           -16.9969555101       19.0178967300       17.0792158125  WT01      562             0.0000000000
      1761       567  TIP3      H1            -17.3150680203       18.1340641135       16.8951610710  WT01      562             0.0000000000
      1762       567  TIP3      H2            -16.1544508855       18.8841465082       17.5134146687  WT01      562             0.0000000000
      1763       568  TIP3      OH2            -9.0437222558       -1.8041496685       17.8735604568  WT01      563             0.0000000000
      1764       568  TIP3      H1             -8.5810508776       -1.6369789933       17.0524508586  WT01      563             0.0000000000
      1765       568  TIP3      H2             -8.3833427333       -1.6684407479       18.5530557005  WT01      563             0.0000000000
      1766       569  TIP3      OH2             7.7550215705        9.7119879180        6.2511435811  WT01      564             0.0000000000
      1767       569  TIP3      H1              7.6929853033        8.9855095584        6.8713149330  WT01      564             0.0000000000
      1768       569  TIP3      H2              8.2655285292        9.3614958537        5.5212327858  WT01      564             0.0000000000
      1769       570  TIP3      OH2           -10.6739851355        3.8329981164       17.6815556252  WT01      565             0.0000000000
      1770       570  TIP3      H1            -10.1233170781        3.3872046800       18.3251896157  WT01      565             0.0000000000
      1771       570  TIP3      H2            -11.5354536134        3.8823632462       18.0958827384  WT01      565             0.0000000000
      1772       571  TIP3      OH2             6.6162895510      -18.9264849501      -12.4324151983  WT01      566             0.0000000000
      1773       571  TIP3      H1              7.1189740938      -19.6922526367      -12.1546744708  WT01      566             0.0000000000
      1774       571  TIP3      H2              6.7266284354      -18.2959513837      -11.7207379096  WT01      566             0.0000000000
      1775       572  TIP3      OH2           -13.9561957548      -16.9692093011      -16.8480209487  WT01      567             0.0000000000
      1776       572  TIP3      H1            -14.6269109401      -17.4393241501      -16.3526776536  WT01      567             0.0000000000
      1777       572  TIP3      H2            -14.4490168820      -16.4173827908      -17.4553484141  WT01      567             0.0000000000
      1778       573  TIP3      OH2             2.4843241919       18.3472623488       14.9630228307  WT01      568             0.0000000000
      1779       573  TIP3      H1              3.4276774746       18.4384456130       14.8288512716  WT01      568             0.0000000000
      1780       573  TIP3      H2              2.1273474018       19.2098357324       14.7514417814  WT01      568             0.0000000000
      1781       574  TIP3      OH2             7.0294288517       19.1245571400      -16.3243817212  WT01      569             0.0000000000
      1782       574  TIP3      H1              7.3170522356       18.4270698165      -15.7353010531  WT01      569             0.0000000000
      1783       574  TIP3      H2              6.5787601306       18.6680416700      -17.0348204170  WT01      569             0.0000000000
      1784       575  TIP3      OH2            -9.7253862390       -7.3118002603       15.0048490566  WT01      570             0.0000000000
      1785       575  TIP3      H1             -8.7954744443       -7.2130636431       14.8005283637  WT01      570             0.0000000000
      1786       575  TIP3      H2            -10.1114930403       -6.4649926090       14.7810854521  WT01      570             0.0000000000
      1787       576  TIP3      OH2            10.4634505152      -16.1504755854      -17.5002944024  WT01      571             0.0000000000
      1788       576  TIP3      H1             10.0076134732      -16.5869298717      -16.7806055404  WT01      571             0.0000000000
      1789       576  TIP3      H2              9.8805132394      -15.4352351937      -17.7549453902  WT01      571             0.0000000000
      1790       577  TIP3      OH2            -2.7698058907       12.6258653346      -16.7058505331  WT01      572             0.0000000000
      1791       577  TIP3      H1             -2.8211666111       13.1421568111      -15.9014644325  WT01      572             0.0000000000
      1792       577  TIP3      H2             -2.9910669468       11.7351876769      -16.4338787216  WT01      572             0.0000000000
      1793       578  TIP3      OH2             4.3050015904      -16.3903254321      -15.2874936850  WT01      573             0.0000000000
      1794       578  TIP3      H1              4.1906736802      -16.9075523455      -16.0847623098  WT01      573             0.0000000000
      1795       578  TIP3      H2              5.1439593652      -16.6818344406      -14.9305564902  WT01      573             0.0000000000
      1796       579  TIP3      OH2             6.8501651308       14.5303653304       -9.0348880835  WT01      574             0.0000000000
      1797       579  TIP3      H1              6.8561897347       13.5863441466       -9.1930636816  WT01      574             0.0000000000
      1798       579  TIP3      H2              7.6823319135       14.8390612126       -9.3932693178  WT01      574             0.0000000000
      1799       580  TIP3      OH2             4.9446928128       -8.7586915705       -6.4672042315  WT01      575             0.0000000000
      1800       580  TIP3      H1              4.1701764668       -8.7208151309       -7.0283830052  WT01      575             0.0000000000
      1801       580  TIP3      H2              5.6520340777       -8.4114972467       -7.0106711095  WT01      575             0.0000000000
      1802       581  TIP3      OH2           -17.3824256054        7.0875282169        5.6021397000  WT01      576             0.0000000000
      1803       581  TIP3      H1            -16.8347691666        6.5999354727        4.9868693921  WT01      576             0.0000000000
      1804       581  TIP3      H2            -16.7929165299        7.3125096089        6.3219273313  WT01      576             0.0000000000
      1805       582  TIP3      OH2            -6.8864675004       -7.0823394384       14.3097208740  WT01      577             0.0000000000
      1806       582  TIP3      H1             -6.5561860983       -7.1802877814       13.4166631331  WT01      577             0.0000000000
      1807       582  TIP3      H2             -6.2315275522       -6.5404148601       14.7497245408  WT01      577             0.0000000000
      1808       583  TIP3      OH2           -10.8042472673      -13.1357993206      -17.2000887303  WT01      578             0.0000000000
      1809       583  TIP3      H1            -11.4057706590      -13.8453648170      -17.4257394041  WT01      578             0.0000000000
      1810       583  TIP3      H2            -10.5505926583      -12.7591272398      -18.0427092225  WT01      578             0.0000000000
      1811       584  TIP3      OH2             0.7159037584       -2.6760381552       19.6303090946  WT01      579             0.0000000000
      1812       584  TIP3      H1              1.0645459848       -3.5267583635       19.8966838988  WT01      579             0.0000000000
      1813       584  TIP3      H2              0.9862049781       -2.0772608454       20.3264662571  WT01      579             0.0000000000
      1814       585  TIP3      OH2             1.5671911079       17.8231640872       19.8597627347  WT01      580             0.0000000000
      1815       585  TIP3      H1              0.8586454458       17.6459709510       20.4784690045  WT01      580             0.0000000000
      1816       585  TIP3      H2              1.1530482153       17.7684412385       18.9985293835  WT01      580             0.0000000000
      1817       586  TIP3      OH2            -9.4842900512      -18.8176136101       -9.0124941287  WT01      581             0.0000000000
      1818       586  TIP3      H1             -9.8728157002      -18.2405718559       -8.3549970222  WT01      581             0.0000000000
      1819       586  TIP3      H2             -8.9927666917      -19.4632624201       -8.5047794329  WT01      581             0.0000000000
      1820       587  TIP3      OH2           -11.4576813299      -15.1572507815       -9.6292409654  WT01      582             0.0000000000
      1821       587  TIP3      H1            -11.0084684008      -15.7013214015       -8.9823818495  WT01      582             0.0000000000
      1822       587  TIP3      H2            -10.8298476544      -14.4657589344       -9.8387540014  WT01      582             0.0000000000
      1823       588  TIP3      OH2            -9.5293221479       17.2235142575      -17.1272777866  WT01      583             0.0000000000
      1824       588  TIP3      H1             -8.7292138628       16.7131298804      -17.0025126841  WT01      583             0.0000000000
      1825       588  TIP3      H2             -9.4498981279       17.5820171537      -18.0112457213  WT01      583             0.0000000000
      1826       589  TIP3      OH2             5.1444584734      -14.8019483269       -7.7073371916  WT01      584             0.0000000000
      1827       589  TIP3      H1              5.9972114225      -14.3997036382       -7.8723930283  WT01      584             0.0000000000
      1828       589  TIP3      H2              5.0387113999      -14.7588783486       -6.7569718174  WT01      584             0.0000000000
      1829       590  TIP3      OH2             0.1317832420      -10.2261081533      -16.8257964749  WT01      585             0.0000000000
      1830       590  TIP3      H1             -0.7538498972      -10.5862482274      -16.8725391851  WT01      585             0.0000000000
      1831       590  TIP3      H2              0.0034735892       -9.2786414208      -16.7802417301  WT01      585             0.0000000000
      1832       591  TIP3      OH2           -18.4576997049       16.5082863111       16.6247227920  WT01      586             0.0000000000
      1833       591  TIP3      H1            -17.9947973940       15.8886179656       17.1886061160  WT01      586             0.0000000000
      1834       591  TIP3      H2            -18.3461401833       16.1580741776       15.7409028184  WT01      586             0.0000000000
      1835       592  TIP3      OH2            12.5994390319      -10.2609929266       17.6057641136  WT01      587             0.0000000000
      1836       592  TIP3      H1             11.8945843122       -9.6629903863       17.8543694171  WT01      587             0.0000000000
      1837       592  TIP3      H2             12.3562340247      -10.5688145352       16.7326495777  WT01      587             0.0000000000
      1838       593  TIP3      OH2           -17.7499176738       -9.1221198218       -6.4167606922  WT01      588             0.0000000000
      1839       593  TIP3      H1            -17.4677985618       -9.9764523698       -6.7434968475  WT01      588             0.0000000000
      1840       593  TIP3      H2            -17.0405621258       -8.5265838759       -6.6583873768  WT01      588             0.0000000000
      1841       594  TIP3      OH2             0.4139103320      -10.7785338802       -2.0021578530  WT01      589             0.0000000000
      1842       594  TIP3      H1              0.3824148308      -11.6749283110       -1.6679171179  WT01      589             0.0000000000
      1843       594  TIP3      H2              0.0567079567      -10.2450079084       -1.2922365112  WT01      589             0.0000000000
      1844       595  TIP3      OH2             1.9153875985      -12.6881885694      -17.1770262139  WT01      590             0.0000000000
      1845       595  TIP3      H1              1.3334193195      -13.2548837755      -17.6833870306  WT01      590             0.0000000000
      1846       595  TIP3      H2              1.4763005554      -11.8376634942      -17.1705860260  WT01      590             0.0000000000
      1847       596  TIP3      OH2            -1.5514213446        7.2734975274        8.5586609649  WT01      591             0.0000000000
      1848       596  TIP3      H1             -1.1766069124        6.3937262407        8.6004752649  WT01      591             0.0000000000
      1849       596  TIP3      H2             -1.3340785732        7.6673580876        9.4035679360  WT01      591             0.0000000000
      1850       597  TIP3      OH2             4.9568594103       -7.4543391046      -18.6871722518  WT01      592             0.0000000000
      1851       597  TIP3      H1              5.3898578345       -7.8678405234      -19.4340060703  WT01      592             0.0000000000
      1852       597  TIP3      H2              4.3932880795       -6.7857380411      -19.0765201476  WT01      592             0.0000000000
      1853       598  TIP3      OH2            10.4451215327       -6.1361136590       -8.8617997363  WT01      593             0.0000000000
      1854       598  TIP3      H1             10.8949209821       -6.2492579304       -9.6991232343  WT01      593             0.0000000000
      1855       598  TIP3      H2             10.9216945714       -6.7025038787       -8.2549125402  WT01      593             0.0000000000
      1856       599  TIP3      OH2             2.9550464165      -12.2647478126        6.0882131964  WT01      594             0.0000000000
      1857       599  TIP3      H1              2.1672651421      -12.1787514172        5.5513360273  WT01      594             0.0000000000
      1858       599  TIP3      H2              3.0951872555      -11.3899420411        6.4505765754  WT01      594             0.0000000000
      1859       600  TIP3      OH2             4.5697621499       -0.8438899543        0.7562079211  WT01      595             0.0000000000
      1860       600  TIP3      H1              5.1326301814       -1.6095708238        0.8708560615  WT01      595             0.0000000000
      1861       600  TIP3      H2              3.7785896915       -1.1876070758        0.3413145703  WT01      595             0.0000000000
      1862       601  TIP3      OH2            18.5920489157      -18.2815629820      -19.4078619683  WT01      596             0.0000000000
      1863       601  TIP3      H1             18.4096155781      -18.9627025626      -18.7605608327  WT01      596             0.0000000000
      1864       601  TIP3      H2             18.5084066069      -18.7244188269      -20.2523230248  WT01      596             0.0000000000
      1865       602  TIP3      OH2            15.3901386140      -19.7368374003       18.2731662424  WT01      597             0.0000000000
      1866       602  TIP3      H1             15.2760835569      -18.9542314290       17.7339527887  WT01      597             0.0000000000
      1867       602  TIP3      H2             16.3386578196      -19.8343041164       18.3570910116  WT01      597             0.0000000000
      1868       603  TIP3      OH2            -7.7571237885      -17.6364013723      -15.8106641801  WT01      598             0.0000000000
      1869       603  TIP3      H1             -8.0771236576      -16.8756768373      -15.3257620491  WT01      598             0.0000000000
      1870       603  TIP3      H2             -7.2208199915      -18.1154642397      -15.1789135825  WT01      598             0.0000000000
      1871       604  TIP3      OH2           -18.5056015550        8.0282805667       16.0891759021  WT01      599             0.0000000000
      1872       604  TIP3      H1            -18.6335850452        8.5210596196       16.8997441239  WT01      599             0.0000000000
      1873       604  TIP3      H2            -17.6185268666        7.6757322360       16.1601687374  WT01      599             0.0000000000
      1874       605  TIP3      OH2            11.8921624473       16.0095220120      -19.8469929631  WT01      600             0.0000000000
      1875       605  TIP3      H1             11.4636857969       16.5235260170      -20.5314193317  WT01      600             0.0000000000
      1876       605  TIP3      H2             12.3945708147       16.6507355451      -19.3443371680  WT01      600             0.0000000000
      1877       606  TIP3      OH2             1.6667120143      -16.8779309634      -18.6987335788  WT01      601             0.0000000000
      1878       606  TIP3      H1              1.7293260167      -17.1614301648      -19.6108407548  WT01      601             0.0000000000
      1879       606  TIP3      H2              0.7481642129      -17.0154033469      -18.4672101646  WT01      601             0.0000000000
      1880       607  TIP3      OH2             2.1262348261        6.0349303983       -4.2101007878  WT01      602             0.0000000000
      1881       607  TIP3      H1              2.4816553641        6.8238719656       -3.8008584933  WT01      602             0.0000000000
      1882       607  TIP3      H2              2.6625323599        5.9081368345       -4.9927502358  WT01      602             0.0000000000
      1883       608  TIP3      OH2            19.7355466907        8.9031798321       -8.9895196645  WT01      603             0.0000000000
      1884       608  TIP3      H1             20.2016309603        9.7267228220       -8.8453870569  WT01      603             0.0000000000
      1885       608  TIP3      H2             19.2111592046        9.0585091816       -9.7750910290  WT01      603             0.0000000000
      1886       609  TIP3      OH2            -7.3700704014       17.9896933268        5.4249037551  WT01      604             0.0000000000
      1887       609  TIP3      H1             -6.7425406740       18.3133959481        6.0711659815  WT01      604             0.0000000000
      1888       609  TIP3      H2             -6.8884179170       17.9976955419        4.5977528258  WT01      604             0.0000000000
      1889       610  TIP3      OH2             8.8466692909      -13.6137523389      -12.7423076332  WT01      605             0.0000000000
      1890       610  TIP3      H1              8.7282596532      -12.7003192787      -12.4818253629  WT01      605             0.0000000000
      1891       610  TIP3      H2              8.1033802673      -13.7978045571      -13.3166577176  WT01      605             0.0000000000
      1892       611  TIP3      OH2             2.5301626850       18.0904790093      -13.8295372230  WT01      606             0.0000000000
      1893       611  TIP3      H1              1.9945603121       18.6442485212      -13.2614692369  WT01      606             0.0000000000
      1894       611  TIP3      H2              1.9040116146       17.6860743077      -14.4300565694  WT01      606             0.0000000000
      1895       612  TIP3      OH2             0.9059894803       -9.7009609746      -19.5626646056  WT01      607             0.0000000000
      1896       612  TIP3      H1              1.4212110775       -9.8832843935      -18.7768295799  WT01      607             0.0000000000
      1897       612  TIP3      H2              0.5113513122      -10.5424678016      -19.7914850316  WT01      607             0.0000000000
      1898       613  TIP3      OH2            12.8002217311      -15.2384485945       10.4606633444  WT01      608             0.0000000000
      1899       613  TIP3      H1             12.0537306425      -15.8294632875       10.5590731936  WT01      608             0.0000000000
      1900       613  TIP3      H2             13.4765037214      -15.6096024393       11.0273372400  WT01      608             0.0000000000
      1901       614  TIP3      OH2            16.1528078136      -17.3459351264      -17.3657678241  WT01      609             0.0000000000
      1902       614  TIP3      H1             16.0508511203      -18.2816293716      -17.1916617554  WT01      609             0.0000000000
      1903       614  TIP3      H2             16.3745556002      -17.2976246873      -18.2956741804  WT01      609             0.0000000000
      1904       615  TIP3      OH2             0.2635677544       19.3338016493        3.7445508914  WT01      610             0.0000000000
      1905       615  TIP3      H1             -0.5505063159       18.9180394543        3.4605491021  WT01      610             0.0000000000
      1906       615  TIP3      H2              0.9460958808       18.8992566039        3.2331237008  WT01      610             0.0000000000
      1907       616  TIP3      OH2             5.7385330995        0.5046427896      -11.0758468640  WT01      611             0.0000000000
      1908       616  TIP3      H1              6.4572365876        0.5604556931      -10.4460992740  WT01      611             0.0000000000
      1909       616  TIP3      H2              6.1564276907        0.2347671174      -11.8936262005  WT01      611             0.0000000000
      1910       617  TIP3      OH2            12.1699374444      -18.9682480257        4.3159713152  WT01      612             0.0000000000
      1911       617  TIP3      H1             11.9376428314      -19.5541722186        3.5955798493  WT01      612             0.0000000000
      1912       617  TIP3      H2             13.0217066876      -19.2843583830        4.6172937495  WT01      612             0.0000000000
      1913       618  TIP3      OH2            10.0603936924       19.8123745271       -2.2721880228  WT01      613             0.0000000000
      1914       618  TIP3      H1              9.7949440349       18.9385481107       -1.9854901253  WT01      613             0.0000000000
      1915       618  TIP3      H2             10.9792114130       19.8812337963       -2.0128345797  WT01      613             0.0000000000
      1916       619  TIP3      OH2             2.8836246697       -9.4975496097      -17.4973473363  WT01      614             0.0000000000
      1917       619  TIP3      H1              2.2406696886       -9.1662112961      -16.8704058516  WT01      614             0.0000000000
      1918       619  TIP3      H2              3.3833731733       -8.7245009723      -17.7597955186  WT01      614             0.0000000000
      1919       620  TIP3      OH2           -14.1335408517      -14.0982457938       -4.3987776777  WT01      615             0.0000000000
      1920       620  TIP3      H1            -14.0364915983      -14.6228799420       -3.6040624683  WT01      615             0.0000000000
      1921       620  TIP3      H2            -13.4979762709      -13.3896775874       -4.2976808350  WT01      615             0.0000000000
      1922       621  TIP3      OH2           -16.6704303027       -2.9333382835      -13.5101367507  WT01      616             0.0000000000
      1923       621  TIP3      H1            -16.8064017995       -2.0947917510      -13.9512526947  WT01      616             0.0000000000
      1924       621  TIP3      H2            -16.6686658963       -2.7165480412      -12.5778113307  WT01      616             0.0000000000
      1925       622  TIP3      OH2            11.6879457976      -11.1338128132      -10.5566886439  WT01      617             0.0000000000
      1926       622  TIP3      H1             11.9413577932      -11.9321275570      -11.0200543109  WT01      617             0.0000000000
      1927       622  TIP3      H2             10.8094762284      -10.9363594841      -10.8815504761  WT01      617             0.0000000000
      1928       623  TIP3      OH2            18.1252972070       19.4654508839       18.5903056012  WT01      618             0.0000000000
      1929       623  TIP3      H1             18.4688781709       18.5745089158       18.6566858823  WT01      618             0.0000000000
      1930       623  TIP3      H2             18.7172930786       19.9061660981       17.9807624944  WT01      618             0.0000000000
      1931       624  TIP3      OH2            11.7224867881       -9.8492289057       -8.0037098489  WT01      619             0.0000000000
      1932       624  TIP3      H1             11.6286450338      -10.4354083072       -8.7545888308  WT01      619             0.0000000000
      1933       624  TIP3      H2             12.5033955353      -10.1648661895       -7.5489720731  WT01      619             0.0000000000
      1934       625  TIP3      OH2           -19.7371613883        7.1012157470      -18.7590273447  WT01      620             0.0000000000
      1935       625  TIP3      H1            -18.8000558367        7.2586983787      -18.8741977270  WT01      620             0.0000000000
      1936       625  TIP3      H2            -20.0558711193        7.8767365613      -18.2972661672  WT01      620             0.0000000000
      1937       626  TIP3      OH2            14.9132921969       -3.0987323909       19.3189408201  WT01      621             0.0000000000
      1938       626  TIP3      H1             15.8273019833       -3.2958610837       19.5237778282  WT01      621             0.0000000000
      1939       626  TIP3      H2             14.9465399430       -2.6655447411       18.4660194530  WT01      621             0.0000000000
      1940       627  TIP3      OH2            13.6896163593       -1.3539102710      -15.1413550421  WT01      622             0.0000000000
      1941       627  TIP3      H1             13.7772300433       -2.3026355129      -15.2334206105  WT01      622             0.0000000000
      1942       627  TIP3      H2             12.7786891731       -1.1733836025      -15.3734188145  WT01      622             0.0000000000
      1943       628  TIP3      OH2            -4.3092999784        9.9489572372        6.6185579721  WT01      623             0.0000000000
      1944       628  TIP3      H1             -3.7244490641        9.2397492475        6.3517148598  WT01      623             0.0000000000
      1945       628  TIP3      H2             -4.8983074889       10.0675001186        5.8734072834  WT01      623             0.0000000000
      1946       629  TIP3      OH2             5.6426993685      -11.7840290150       -5.2066349942  WT01      624             0.0000000000
      1947       629  TIP3      H1              5.6142078560      -10.8439617765       -5.0286079404  WT01      624             0.0000000000
      1948       629  TIP3      H2              4.8267273630      -11.9647465998       -5.6732854543  WT01      624             0.0000000000
      1949       630  TIP3      OH2            -0.0733073633       18.0167672864      -17.5942490491  WT01      625             0.0000000000
      1950       630  TIP3      H1             -0.2638908222       18.9315302751      -17.3865992697  WT01      625             0.0000000000
      1951       630  TIP3      H2              0.6839871391       17.7999778864      -17.0504299581  WT01      625             0.0000000000
      1952       631  TIP3      OH2             2.5727859241       -3.2703558800      -14.7217964998  WT01      626             0.0000000000
      1953       631  TIP3      H1              1.8916633391       -2.8283812377      -15.2287109412  WT01      626             0.0000000000
      1954       631  TIP3      H2              2.1929758508       -4.1203696231      -14.4994167440  WT01      626             0.0000000000
      1955       632  TIP3      OH2            13.0798646788        2.5666485799       16.2148580540  WT01      627             0.0000000000
      1956       632  TIP3      H1             13.7202546109        2.1757048894       16.8092447772  WT01      627             0.0000000000
      1957       632  TIP3      H2             13.0420569666        3.4871666915       16.4745671106  WT01      627             0.0000000000
      1958       633  TIP3      OH2             5.0215434091       -4.3472693257       -1.9599593827  WT01      628             0.0000000000
      1959       633  TIP3      H1              5.0846659730       -4.2447999564       -1.0103555804  WT01      628             0.0000000000
      1960       633  TIP3      H2              4.7005159448       -5.2404382979       -2.0841461991  WT01      628             0.0000000000
      1961       634  TIP3      OH2           -12.1272023821       15.5271392919       18.6772034513  WT01      629             0.0000000000
      1962       634  TIP3      H1            -12.8493814984       15.4697205949       18.0515899697  WT01      629             0.0000000000
      1963       634  TIP3      H2            -11.8983535295       16.4564110121       18.6949258592  WT01      629             0.0000000000
      1964       635  TIP3      OH2           -11.4719629162       -2.9701603762       -7.6022938707  WT01      630             0.0000000000
      1965       635  TIP3      H1            -11.6053454494       -2.8970241412       -8.5473293208  WT01      630             0.0000000000
      1966       635  TIP3      H2            -11.9328181130       -2.2155048444       -7.2357705740  WT01      630             0.0000000000
      1967       636  TIP3      OH2            -0.8950666453      -14.8370689749       13.5442057343  WT01      631             0.0000000000
      1968       636  TIP3      H1             -0.3051086936      -15.5814743475       13.4257065045  WT01      631             0.0000000000
      1969       636  TIP3      H2             -0.7533686561      -14.5602914895       14.4494944808  WT01      631             0.0000000000
      1970       637  TIP3      OH2             9.1191275789        2.0225935198      -10.4401856555  WT01      632             0.0000000000
      1971       637  TIP3      H1             10.0319348076        2.2246716736      -10.2348099170  WT01      632             0.0000000000
      1972       637  TIP3      H2              8.7732134644        1.6325091858       -9.6374344806  WT01      632             0.0000000000
      1973       638  TIP3      OH2           -17.7715134442      -17.6953216847        4.5222527091  WT01      633             0.0000000000
      1974       638  TIP3      H1            -16.8568355388      -17.6591683377        4.2424508579  WT01      633             0.0000000000
      1975       638  TIP3      H2            -18.2122626397      -17.0347885749        3.9877735527  WT01      633             0.0000000000
      1976       639  TIP3      OH2           -11.4924937768        7.9170388707       17.3910625185  WT01      634             0.0000000000
      1977       639  TIP3      H1            -12.2617076552        7.4073663378       17.6455732840  WT01      634             0.0000000000
      1978       639  TIP3      H2            -10.8464269908        7.7332186312       18.0730006672  WT01      634             0.0000000000
      1979       640  TIP3      OH2            -4.5953749832       19.0110393847       18.0118215432  WT01      635             0.0000000000
      1980       640  TIP3      H1             -5.0348627495       18.2742391899       17.5873126655  WT01      635             0.0000000000
      1981       640  TIP3      H2             -3.8672125470       18.6134219466       18.4892224758  WT01      635             0.0000000000
      1982       641  TIP3      OH2            19.4959605940      -13.4409539375      -15.4235081494  WT01      636             0.0000000000
      1983       641  TIP3      H1             20.0707086969      -13.9396014787      -14.8427783854  WT01      636             0.0000000000
      1984       641  TIP3      H2             19.5903450762      -13.8648940393      -16.2765018016  WT01      636             0.0000000000
      1985       642  TIP3      OH2             6.9446508675       -3.7837167913       19.6901032515  WT01      637             0.0000000000
      1986       642  TIP3      H1              6.8158410746       -2.8569847176       19.8921119442  WT01      637             0.0000000000
      1987       642  TIP3      H2              7.7472942129       -3.8064555147       19.1690673394  WT01      637             0.0000000000
      1988       643  TIP3      OH2            -1.8183683004      -11.9022077055       13.9414009773  WT01      638             0.0000000000
      1989       643  TIP3      H1             -2.6271839244      -11.6795553554       13.4804508407  WT01      638             0.0000000000
      1990       643  TIP3      H2             -2.1099896556      -12.2409311066       14.7878377758  WT01      638             0.0000000000
      1991       644  TIP3      OH2            -2.0484126118        8.3621151685        5.8343043528  WT01      639             0.0000000000
      1992       644  TIP3      H1             -1.6410946674        9.2283203624        5.8307737313  WT01      639             0.0000000000
      1993       644  TIP3      H2             -1.8822159186        8.0223513021        6.7136057717  WT01      639             0.0000000000
      1994       645  TIP3      OH2           -19.7930009595       -0.2738939687      -11.1009723784  WT01      640             0.0000000000
      1995       645  TIP3      H1            -19.9384375206        0.6605835321      -11.2487283201  WT01      640             0.0000000000
      1996       645  TIP3      H2            -19.6797852547       -0.3523215475      -10.1537326357  WT01      640             0.0000000000
      1997       646  TIP3      OH2            14.9939690661       -0.7885120364       -9.9469169908  WT01      641             0.0000000000
      1998       646  TIP3      H1             14.7575874721       -0.9048869136      -10.8671411162  WT01      641             0.0000000000
      1999       646  TIP3      H2             15.0006826007        0.1600749920       -9.8189740771  WT01      641             0.0000000000
      2000       647  TIP3      OH2           -12.9450020149      -13.1167261697      -12.2872505311  WT01      642             0.0000000000
      2001       647  TIP3      H1            -12.6815315131      -12.3829898578      -12.8426297981  WT01      642             0.0000000000
      2002       647  TIP3      H2            -12.4740828639      -13.8694961692      -12.6447477929  WT01      642             0.0000000000
      2003       648  TIP3      OH2           -17.5868976384      -16.4237728662        6.9383685993  WT01      643             0.0000000000
      2004       648  TIP3      H1            -16.8109151806      -16.6413164374        7.4548546405  WT01      643             0.0000000000
      2005       648  TIP3      H2            -17.5464564297      -17.0126324907        6.1848165690  WT01      643             0.0000000000
      2006       649  TIP3      OH2            17.7302208639      -15.2239794692        1.3024757575  WT01      644             0.0000000000
      2007       649  TIP3      H1             18.6414825440      -15.1407121777        1.0215833946  WT01      644             0.0000000000
      2008       649  TIP3      H2             17.5291816448      -14.3848543883        1.7168236090  WT01      644             0.0000000000
      2009       650  TIP3      OH2            -6.8673006203        8.5160790319        9.2079750947  WT01      645             0.0000000000
      2010       650  TIP3      H1             -6.6227533032        8.6792782217        8.2970445566  WT01      645             0.0000000000
      2011       650  TIP3      H2             -6.0577030478        8.2207479283        9.6245841691  WT01      645             0.0000000000
      2012       651  TIP3      OH2            -8.6842318466      -11.7019299181       -6.7171409374  WT01      646             0.0000000000
      2013       651  TIP3      H1             -8.0470997479      -12.3505458841       -7.0164598783  WT01      646             0.0000000000
      2014       651  TIP3      H2             -9.0707220663      -12.0897412026       -5.9319915703  WT01      646             0.0000000000
      2015       652  TIP3      OH2           -10.1400800102       13.3480681926        9.3453633134  WT01      647             0.0000000000
      2016       652  TIP3      H1             -9.4816412609       13.6021348207        9.9920010581  WT01      647             0.0000000000
      2017       652  TIP3      H2            -10.7510583329       14.0845676803        9.3228732101  WT01      647             0.0000000000
      2018       653  TIP3      OH2             9.7599230335      -14.4059831011       11.4261083004  WT01      648             0.0000000000
      2019       653  TIP3      H1              9.3335424556      -13.6139658755       11.0987856336  WT01      648             0.0000000000
      2020       653  TIP3      H2              9.6235519872      -14.3780523034       12.3731323863  WT01      648             0.0000000000
      2021       654  TIP3      OH2           -11.7955483131      -11.7987332418       -4.8520099600  WT01      649             0.0000000000
      2022       654  TIP3      H1            -12.1120478678      -11.8424709269       -3.9497090912  WT01      649             0.0000000000
      2023       654  TIP3      H2            -12.4460119168      -11.2654696920       -5.3089113693  WT01      649             0.0000000000
      2024       655  TIP3      OH2            -2.1218467768       17.6076239229       -1.3407860356  WT01      650             0.0000000000
      2025       655  TIP3      H1             -1.5631659750       17.1539966045       -1.9719198001  WT01      650             0.0000000000
      2026       655  TIP3      H2             -2.7803779065       18.0491481003       -1.8770928161  WT01      650             0.0000000000
      2027       656  TIP3      OH2             1.7942614505        6.6375173802       -9.7400000268  WT01      651             0.0000000000
      2028       656  TIP3      H1              2.0805502119        6.2151029779      -10.5498374357  WT01      651             0.0000000000
      2029       656  TIP3      H2              1.4662122147        7.4925911060      -10.0183243582  WT01      651             0.0000000000
      2030       657  TIP3      OH2           -15.5751234783       16.0962788915        7.6884074948  WT01      652             0.0000000000
      2031       657  TIP3      H1            -15.6680255132       16.0193381885        8.6379764239  WT01      652             0.0000000000
      2032       657  TIP3      H2            -16.3980814288       16.4893908096        7.3978304094  WT01      652             0.0000000000
      2033       658  TIP3      OH2            -8.6898052232      -15.9313681632       -5.6637435371  WT01      653             0.0000000000
      2034       658  TIP3      H1             -8.6393555818      -16.6970516660       -5.0915412842  WT01      653             0.0000000000
      2035       658  TIP3      H2             -8.5891713484      -15.1840841071       -5.0741070611  WT01      653             0.0000000000
      2036       659  TIP3      OH2            13.0861341347      -13.0076547868       -5.3252136262  WT01      654             0.0000000000
      2037       659  TIP3      H1             12.1820287550      -13.0120676231       -5.0108797270  WT01      654             0.0000000000
      2038       659  TIP3      H2             13.5779747866      -12.5626008733       -4.6351037811  WT01      654             0.0000000000
      2039       660  TIP3      OH2           -12.6719821694       -0.0949795482      -19.8357998993  WT01      655             0.0000000000
      2040       660  TIP3      H1            -11.8291772005       -0.4397136782      -20.1308761184  WT01      655             0.0000000000
      2041       660  TIP3      H2            -13.0324149921        0.3478048500      -20.6040849818  WT01      655             0.0000000000
      2042       661  TIP3      OH2            10.4733244219       -1.3144276691      -10.8901043075  WT01      656             0.0000000000
      2043       661  TIP3      H1             10.5861776990       -2.1913231534      -11.2569152378  WT01      656             0.0000000000
      2044       661  TIP3      H2             11.3086677581       -0.8765787529      -11.0535718834  WT01      656             0.0000000000
      2045       662  TIP3      OH2            -1.6685676203      -13.5605155954      -12.6441125448  WT01      657             0.0000000000
      2046       662  TIP3      H1             -0.7130597488      -13.5409859793      -12.5906792902  WT01      657             0.0000000000
      2047       662  TIP3      H2             -1.8742811492      -13.0740352822      -13.4423923579  WT01      657             0.0000000000
      2048       663  TIP3      OH2             2.8524374093       -1.0947830595       16.5644136897  WT01      658             0.0000000000
      2049       663  TIP3      H1              3.1936709595       -1.5593948916       17.3285650625  WT01      658             0.0000000000
      2050       663  TIP3      H2              3.2884207740       -1.5068887357       15.8185455858  WT01      658             0.0000000000
      2051       664  TIP3      OH2            12.3814116798       18.3703122763       -5.8694867544  WT01      659             0.0000000000
      2052       664  TIP3      H1             12.3620580658       19.3121541995       -5.6998075263  WT01      659             0.0000000000
      2053       664  TIP3      H2             13.1077564020       18.2515967460       -6.4815012790  WT01      659             0.0000000000
      2054       665  TIP3      OH2            10.3085372703        1.4525705237       -4.0151114227  WT01      660             0.0000000000
      2055       665  TIP3      H1              9.9840548552        0.8618386389       -4.6948016563  WT01      660             0.0000000000
      2056       665  TIP3      H2              9.7856290816        1.2393883696       -3.2422257866  WT01      660             0.0000000000
      2057       666  TIP3      OH2            -3.6162604791       12.2123542544      -19.4572651520  WT01      661             0.0000000000
      2058       666  TIP3      H1             -3.2217267283       11.3723170576      -19.2229311200  WT01      661             0.0000000000
      2059       666  TIP3      H2             -4.3123230646       12.3387652343      -18.8124791780  WT01      661             0.0000000000
      2060       667  TIP3      OH2             2.0045715416      -13.2393880230       -4.6154983697  WT01      662             0.0000000000
      2061       667  TIP3      H1              2.8398900890      -13.5558059017       -4.9595252022  WT01      662             0.0000000000
      2062       667  TIP3      H2              2.0948897488      -12.2865178252       -4.6048767624  WT01      662             0.0000000000
      2063       668  TIP3      OH2             0.4860607954      -15.0806403827       -9.5583992861  WT01      663             0.0000000000
      2064       668  TIP3      H1              0.7429887398      -14.7315711643      -10.4118455487  WT01      663             0.0000000000
      2065       668  TIP3      H2              0.9464489428      -15.9172861363       -9.4928367376  WT01      663             0.0000000000
      2066       669  TIP3      OH2            -8.1007582516       18.9522031708       -4.1086606904  WT01      664             0.0000000000
      2067       669  TIP3      H1             -8.9858690374       18.9505889831       -3.7442322307  WT01      664             0.0000000000
      2068       669  TIP3      H2             -8.2316055178       18.9437812534       -5.0568378233  WT01      664             0.0000000000
      2069       670  TIP3      OH2            -9.2602651681      -12.9985390313       -4.0464099871  WT01      665             0.0000000000
      2070       670  TIP3      H1             -9.7170883761      -13.6047935665       -3.4633149636  WT01      665             0.0000000000
      2071       670  TIP3      H2             -9.7773565060      -12.1939023129       -4.0088851856  WT01      665             0.0000000000
      2072       671  TIP3      OH2            -2.4520406826       -6.9257947650       16.3773456074  WT01      666             0.0000000000
      2073       671  TIP3      H1             -3.2307109370       -6.7236959891       15.8586351576  WT01      666             0.0000000000
      2074       671  TIP3      H2             -2.1193887905       -6.0718165901       16.6535625629  WT01      666             0.0000000000
      2075       672  TIP3      OH2             1.9041650980       -9.7040799615       -4.4206343960  WT01      667             0.0000000000
      2076       672  TIP3      H1              1.4470569258      -10.0991000399       -3.6781769443  WT01      667             0.0000000000
      2077       672  TIP3      H2              1.4841070186      -10.0854636526       -5.1915620847  WT01      667             0.0000000000
      2078       673  TIP3      OH2             7.3188118340       -7.6522454602        3.5437255296  WT01      668             0.0000000000
      2079       673  TIP3      H1              7.6656822111       -8.2780393459        2.9078837527  WT01      668             0.0000000000
      2080       673  TIP3      H2              7.8397500406       -7.7986630860        4.3332931802  WT01      668             0.0000000000
      2081       674  TIP3      OH2            19.5939698790       -7.7340673262       -6.3581799683  WT01      669             0.0000000000
      2082       674  TIP3      H1             20.0572987771       -8.5630972625       -6.2387332943  WT01      669             0.0000000000
      2083       674  TIP3      H2             18.7057199956       -7.9893079006       -6.6073710693  WT01      669             0.0000000000
      2084       675  TIP3      OH2            -2.9193963566       16.8422572910      -10.0510396910  WT01      670             0.0000000000
      2085       675  TIP3      H1             -3.5478789767       16.1254104370      -10.1369000146  WT01      670             0.0000000000
      2086       675  TIP3      H2             -2.1608837819       16.5588363151      -10.5614934456  WT01      670             0.0000000000
      2087       676  TIP3      OH2             3.6695765875      -14.5683115062      -17.9176456083  WT01      671             0.0000000000
      2088       676  TIP3      H1              3.4942611217      -13.8596237589      -17.2985672810  WT01      671             0.0000000000
      2089       676  TIP3      H2              2.8269764104      -15.0105278364      -18.0210935173  WT01      671             0.0000000000
      2090       677  TIP3      OH2           -19.3970103438       -7.8516569005       15.1881331366  WT01      672             0.0000000000
      2091       677  TIP3      H1            -19.6096201509       -8.0227944875       16.1055974723  WT01      672             0.0000000000
      2092       677  TIP3      H2            -18.4977965439       -7.5241181278       15.2072303987  WT01      672             0.0000000000
      2093       678  TIP3      OH2            16.5305961027       13.1952923798      -14.8194911339  WT01      673             0.0000000000
      2094       678  TIP3      H1             16.5794881091       14.1420276212      -14.9519062590  WT01      673             0.0000000000
      2095       678  TIP3      H2             15.6118792177       13.0296916232      -14.6079078509  WT01      673             0.0000000000
      2096       679  TIP3      OH2            19.0080136463       -6.0008336087       -3.3592671843  WT01      674             0.0000000000
      2097       679  TIP3      H1             18.7833739847       -5.1717328183       -2.9369394528  WT01      674             0.0000000000
      2098       679  TIP3      H2             18.1863555941       -6.3036109020       -3.7458364108  WT01      674             0.0000000000
      2099       680  TIP3      OH2           -10.7135229040       15.9740715847        8.2809467229  WT01      675             0.0000000000
      2100       680  TIP3      H1            -10.9912222895       16.0774340447        9.1911286082  WT01      675             0.0000000000
      2101       680  TIP3      H2            -11.5222381037       15.7914200350        7.8025640849  WT01      675             0.0000000000
      2102       681  TIP3      OH2            17.2255098692      -11.0276038663        6.8440254592  WT01      676             0.0000000000
      2103       681  TIP3      H1             16.7834554936      -11.7286353317        6.3650947496  WT01      676             0.0000000000
      2104       681  TIP3      H2             17.6895350449      -11.4756767317        7.5512334588  WT01      676             0.0000000000
      2105       682  TIP3      OH2           -11.0657573971       11.1812331904       18.5366843811  WT01      677             0.0000000000
      2106       682  TIP3      H1            -10.3198455920       10.6532527918       18.2519317011  WT01      677             0.0000000000
      2107       682  TIP3      H2            -11.8327730549       10.7005828767       18.2254062616  WT01      677             0.0000000000
      2108       683  TIP3      OH2            12.0816906708      -15.1465167027       -9.8801313965  WT01      678             0.0000000000
      2109       683  TIP3      H1             11.5825863389      -15.7554598155       -9.3357831970  WT01      678             0.0000000000
      2110       683  TIP3      H2             12.3424114637      -14.4472036992       -9.2807835824  WT01      678             0.0000000000
      2111       684  TIP3      OH2             6.7949936633       18.4293197616       -0.1320956045  WT01      679             0.0000000000
      2112       684  TIP3      H1              6.8873848287       18.8331960831        0.7307946553  WT01      679             0.0000000000
      2113       684  TIP3      H2              7.6864832654       18.1826107527       -0.3782922034  WT01      679             0.0000000000
      2114       685  TIP3      OH2             0.3810036768      -12.5054080818       19.7917367935  WT01      680             0.0000000000
      2115       685  TIP3      H1              1.2524078677      -12.3761873026       19.4173191959  WT01      680             0.0000000000
      2116       685  TIP3      H2              0.2750722080      -13.4559312639       19.8306728341  WT01      680             0.0000000000
      2117       686  TIP3      OH2           -15.2751863169       12.1706254168      -10.6594590736  WT01      681             0.0000000000
      2118       686  TIP3      H1            -14.8608325577       12.3008532778      -11.5124441131  WT01      681             0.0000000000
      2119       686  TIP3      H2            -15.9696201489       12.8286085753      -10.6270302735  WT01      681             0.0000000000
      2120       687  TIP3      OH2             2.1346056381       18.1433169316       -5.1945775650  WT01      682             0.0000000000
      2121       687  TIP3      H1              3.0284780254       17.8965901867       -4.9571962692  WT01      682             0.0000000000
      2122       687  TIP3      H2              1.9749556816       18.9566364564       -4.7157717035  WT01      682             0.0000000000
      2123       688  TIP3      OH2             5.0393212911       17.2058063590      -13.9821535257  WT01      683             0.0000000000
      2124       688  TIP3      H1              4.6469189185       16.3672614355      -13.7390597160  WT01      683             0.0000000000
      2125       688  TIP3      H2              4.3189287234       17.8334840287      -13.9248202682  WT01      683             0.0000000000
      2126       689  TIP3      OH2            10.5434230651       -8.0743206381        8.7592768980  WT01      684             0.0000000000
      2127       689  TIP3      H1              9.9984661359       -8.8605590846        8.7921837591  WT01      684             0.0000000000
      2128       689  TIP3      H2             11.3203652625       -8.2992415069        9.2711394143  WT01      684             0.0000000000
      2129       690  TIP3      OH2           -10.1774272294      -19.2649984036      -16.2644099687  WT01      685             0.0000000000
      2130       690  TIP3      H1            -10.6398963220      -18.9590578659      -15.4841827347  WT01      685             0.0000000000
      2131       690  TIP3      H2             -9.2786018432      -19.4103334204      -15.9690754648  WT01      685             0.0000000000
      2132       691  TIP3      OH2            -6.2992123090       18.7753265426        7.8817048677  WT01      686             0.0000000000
      2133       691  TIP3      H1             -5.5751662891       18.2226550380        8.1758874301  WT01      686             0.0000000000
      2134       691  TIP3      H2             -6.7983822585       18.9604452656        8.6771872565  WT01      686             0.0000000000
      2135       692  TIP3      OH2           -18.2525930031      -14.0050347450        8.3460796365  WT01      687             0.0000000000
      2136       692  TIP3      H1            -18.2228329433      -14.2424594685        9.2728890293  WT01      687             0.0000000000
      2137       692  TIP3      H2            -17.9583316840      -14.7918531603        7.8872126966  WT01      687             0.0000000000
      2138       693  TIP3      OH2            -3.8425821952      -10.1347252457        1.6541473353  WT01      688             0.0000000000
      2139       693  TIP3      H1             -3.4640592129       -9.3355372233        1.2877450050  WT01      688             0.0000000000
      2140       693  TIP3      H2             -3.1082699206      -10.5726200077        2.0845720927  WT01      688             0.0000000000
      2141       694  TIP3      OH2            -0.2064637252      -13.8180618529        6.6109431780  WT01      689             0.0000000000
      2142       694  TIP3      H1              0.2543928808      -14.5497275330        6.2004455138  WT01      689             0.0000000000
      2143       694  TIP3      H2             -0.0248925716      -13.0703137229        6.0416133426  WT01      689             0.0000000000
      2144       695  TIP3      OH2            -1.5803613843       -8.8878068429       -1.4067681679  WT01      690             0.0000000000
      2145       695  TIP3      H1             -0.9035041650       -8.2151071724       -1.4814091021  WT01      690             0.0000000000
      2146       695  TIP3      H2             -1.5310949685       -9.1777902142       -0.4958816351  WT01      690             0.0000000000
      2147       696  TIP3      OH2            -3.0355273906      -12.1802553726       16.6041076656  WT01      691             0.0000000000
      2148       696  TIP3      H1             -3.1072827615      -11.4019066541       17.1566076659  WT01      691             0.0000000000
      2149       696  TIP3      H2             -3.8881730376      -12.2491024066       16.1745878201  WT01      691             0.0000000000
      2150       697  TIP3      OH2            11.1115031884       10.9054479989       -5.4020462835  WT01      692             0.0000000000
      2151       697  TIP3      H1             11.0549867370       10.1693629822       -6.0113217138  WT01      692             0.0000000000
      2152       697  TIP3      H2             10.6536005667       11.6196168848       -5.8453518243  WT01      692             0.0000000000
      2153       698  TIP3      OH2             3.1274918142      -12.3564105846       -9.7232131827  WT01      693             0.0000000000
      2154       698  TIP3      H1              2.3623374263      -11.8342255325       -9.9642387937  WT01      693             0.0000000000
      2155       698  TIP3      H2              3.7999258689      -12.1028473769      -10.3554868203  WT01      693             0.0000000000
      2156       699  TIP3      OH2            -5.0320319941      -18.5454981168       -4.4314010623  WT01      694             0.0000000000
      2157       699  TIP3      H1             -5.2353618510      -17.6124213184       -4.3661594443  WT01      694             0.0000000000
      2158       699  TIP3      H2             -4.2429881441      -18.5819421608       -4.9720612564  WT01      694             0.0000000000
      2159       700  TIP3      OH2             3.9823591057       14.3836105170      -13.5848193283  WT01      695             0.0000000000
      2160       700  TIP3      H1              3.3748388488       13.6814525758      -13.3521711516  WT01      695             0.0000000000
      2161       700  TIP3      H2              3.7829913356       15.0877069469      -12.9677840613  WT01      695             0.0000000000
      2162       701  TIP3      OH2           -11.3609575620      -18.7095165180      -18.7465256598  WT01      696             0.0000000000
      2163       701  TIP3      H1            -10.9659213567      -19.1499920937      -17.9940899651  WT01      696             0.0000000000
      2164       701  TIP3      H2            -10.6176425601      -18.4566556728      -19.2940437070  WT01      696             0.0000000000
      2165       702  TIP3      OH2             5.6109706661       -9.4309727870        8.8754265379  WT01      697             0.0000000000
      2166       702  TIP3      H1              4.9605454977      -10.0092895010        9.2738342306  WT01      697             0.0000000000
      2167       702  TIP3      H2              5.6359566234       -9.6953919197        7.9558124692  WT01      697             0.0000000000
      2168       703  TIP3      OH2            13.8143849869      -14.8977236094        1.1497432265  WT01      698             0.0000000000
      2169       703  TIP3      H1             13.9196104789      -15.3742603302        1.9731945976  WT01      698             0.0000000000
      2170       703  TIP3      H2             13.9108630488      -15.5662853080        0.4715477902  WT01      698             0.0000000000
      2171       704  TIP3      OH2             4.1825555043      -10.6583111101        0.1428031719  WT01      699             0.0000000000
      2172       704  TIP3      H1              5.1224807840      -10.4959323183        0.2228369625  WT01      699             0.0000000000
      2173       704  TIP3      H2              3.7723825820       -9.8488878617        0.4474734688  WT01      699             0.0000000000
      2174       705  TIP3      OH2            12.2059441690      -17.3351572809        1.8833461531  WT01      700             0.0000000000
      2175       705  TIP3      H1             11.3728187246      -16.8639176331        1.8915314617  WT01      700             0.0000000000
      2176       705  TIP3      H2             12.1408787328      -17.9503460726        2.6137850970  WT01      700             0.0000000000
      2177       706  TIP3      OH2             7.6397443225       -9.2251901272        1.2398327093  WT01      701             0.0000000000
      2178       706  TIP3      H1              8.2743060505       -9.6213091710        0.6426284498  WT01      701             0.0000000000
      2179       706  TIP3      H2              7.2901428637       -9.9616355146        1.7414887891  WT01      701             0.0000000000
      2180       707  TIP3      OH2           -11.1703839346      -10.7984765630      -10.4412762942  WT01      702             0.0000000000
      2181       707  TIP3      H1            -11.4897594307       -9.9430845830      -10.7285665030  WT01      702             0.0000000000
      2182       707  TIP3      H2            -11.4997776096      -11.4109227648      -11.0990310113  WT01      702             0.0000000000
      2183       708  TIP3      OH2            -1.6251700807        0.6171012606      -14.9266797257  WT01      703             0.0000000000
      2184       708  TIP3      H1             -1.3173597174       -0.1405277867      -14.4292032761  WT01      703             0.0000000000
      2185       708  TIP3      H2             -1.7156617269        1.3118141041      -14.2744396334  WT01      703             0.0000000000
      2186       709  TIP3      OH2            10.7246914216       -8.9705584631        2.9443082765  WT01      704             0.0000000000
      2187       709  TIP3      H1             11.0742849249       -8.8404576607        3.8258353463  WT01      704             0.0000000000
      2188       709  TIP3      H2             11.3800615200       -9.5114217950        2.5036398054  WT01      704             0.0000000000
      2189       710  TIP3      OH2            -3.9632973050       11.8852031303       11.4552871171  WT01      705             0.0000000000
      2190       710  TIP3      H1             -3.8578825736       11.4467544397       10.6109635469  WT01      705             0.0000000000
      2191       710  TIP3      H2             -4.4339846338       12.6928035162       11.2492122125  WT01      705             0.0000000000
      2192       711  TIP3      OH2           -17.2216454776       11.0393209495      -19.4646115431  WT01      706             0.0000000000
      2193       711  TIP3      H1            -16.4376548026       10.5150654449      -19.6281554160  WT01      706             0.0000000000
      2194       711  TIP3      H2            -16.9289477707       11.7295672926      -18.8695318431  WT01      706             0.0000000000
      2195       712  TIP3      OH2            12.3842120517       -3.3994189901        2.6642737166  WT01      707             0.0000000000
      2196       712  TIP3      H1             12.6541200032       -3.8246837541        1.8503134047  WT01      707             0.0000000000
      2197       712  TIP3      H2             11.9474116553       -2.5958863558        2.3818334034  WT01      707             0.0000000000
      2198       713  TIP3      OH2           -14.6311972809       -9.9804154441       12.1469461846  WT01      708             0.0000000000
      2199       713  TIP3      H1            -15.3012512775      -10.5321923583       11.7434592707  WT01      708             0.0000000000
      2200       713  TIP3      H2            -14.3570407685      -10.4659523172       12.9249718671  WT01      708             0.0000000000
      2201       714  TIP3      OH2             5.2553124516      -13.3882768812      -15.7149342874  WT01      709             0.0000000000
      2202       714  TIP3      H1              6.1455958061      -13.6947795807      -15.8872231584  WT01      709             0.0000000000
      2203       714  TIP3      H2              4.8124293711      -14.1431335033      -15.3272773928  WT01      709             0.0000000000
      2204       715  TIP3      OH2           -12.6079207144       -0.4457619266       11.2318511241  WT01      710             0.0000000000
      2205       715  TIP3      H1            -13.2401480798       -1.1520718560       11.3646918300  WT01      710             0.0000000000
      2206       715  TIP3      H2            -12.6539286133        0.0718415663       12.0357178471  WT01      710             0.0000000000
      2207       716  TIP3      OH2           -18.7677258424      -14.9490638376       -7.0150076580  WT01      711             0.0000000000
      2208       716  TIP3      H1            -19.5441314492      -15.4798341219       -7.1930780094  WT01      711             0.0000000000
      2209       716  TIP3      H2            -18.6420555786      -14.4329498887       -7.8112897610  WT01      711             0.0000000000
      2210       717  TIP3      OH2            11.1490486148      -10.3405493889       11.9667599743  WT01      712             0.0000000000
      2211       717  TIP3      H1             10.7935074755      -10.8070658516       12.7231888865  WT01      712             0.0000000000
      2212       717  TIP3      H2             11.4291906127      -11.0327088957       11.3678714294  WT01      712             0.0000000000
      2213       718  TIP3      OH2            -3.2618542705      -16.3406356135       13.5310139247  WT01      713             0.0000000000
      2214       718  TIP3      H1             -3.6016209365      -16.1188761472       12.6640576612  WT01      713             0.0000000000
      2215       718  TIP3      H2             -2.6050019342      -15.6679418710       13.7106244706  WT01      713             0.0000000000
      2216       719  TIP3      OH2            -6.5042911648       -4.0746942272       19.8997511628  WT01      714             0.0000000000
      2217       719  TIP3      H1             -6.2758800159       -4.6499156802       19.1695591071  WT01      714             0.0000000000
      2218       719  TIP3      H2             -6.0209707216       -4.4301863052       20.6455785844  WT01      714             0.0000000000
      2219       720  TIP3      OH2             0.9214153213       -2.3599596254        4.8714906326  WT01      715             0.0000000000
      2220       720  TIP3      H1              0.7977615590       -3.2453905329        4.5295057409  WT01      715             0.0000000000
      2221       720  TIP3      H2              1.7037033571       -2.0370473824        4.4242938936  WT01      715             0.0000000000
      2222       721  TIP3      OH2             3.6691246204       -5.9465800911       16.6372141998  WT01      716             0.0000000000
      2223       721  TIP3      H1              4.4446249115       -5.5916953550       16.2026018052  WT01      716             0.0000000000
      2224       721  TIP3      H2              2.9319990565       -5.5913950953       16.1405036876  WT01      716             0.0000000000
      2225       722  TIP3      OH2            10.5057026880        1.5356865960       15.3649427229  WT01      717             0.0000000000
      2226       722  TIP3      H1             11.3524814274        1.8399911111       15.6914336717  WT01      717             0.0000000000
      2227       722  TIP3      H2             10.5156556268        1.7531762185       14.4328316704  WT01      717             0.0000000000
      2228       723  TIP3      OH2            -6.3335408781        9.2661470437       -5.3308603343  WT01      718             0.0000000000
      2229       723  TIP3      H1             -5.7277083898        9.1268850039       -4.6029833587  WT01      718             0.0000000000
      2230       723  TIP3      H2             -6.2195554324       10.1872164363       -5.5651044447  WT01      718             0.0000000000
      2231       724  TIP3      OH2            12.9941429573        3.0271291995        2.1445630501  WT01      719             0.0000000000
      2232       724  TIP3      H1             12.1436612059        2.6654239600        2.3937254897  WT01      719             0.0000000000
      2233       724  TIP3      H2             12.9743922177        3.9290569532        2.4645131190  WT01      719             0.0000000000
      2234       725  TIP3      OH2           -12.2251206132       -2.8815668780        0.0735176796  WT01      720             0.0000000000
      2235       725  TIP3      H1            -12.7174561242       -2.3809089023       -0.5770045314  WT01      720             0.0000000000
      2236       725  TIP3      H2            -12.5776735374       -2.5931897934        0.9154065700  WT01      720             0.0000000000
      2237       726  TIP3      OH2            10.7175820793       -4.7332756220      -17.4235515216  WT01      721             0.0000000000
      2238       726  TIP3      H1             10.3714770457       -5.4667423777      -17.9319506120  WT01      721             0.0000000000
      2239       726  TIP3      H2             11.5386444321       -4.5052981456      -17.8595729593  WT01      721             0.0000000000
      2240       727  TIP3      OH2            -0.7236612960        0.1504980340      -12.1952201520  WT01      722             0.0000000000
      2241       727  TIP3      H1             -0.6254013161        0.8494478888      -11.5486554701  WT01      722             0.0000000000
      2242       727  TIP3      H2             -1.1992797630       -0.5393517405      -11.7324824580  WT01      722             0.0000000000
      2243       728  TIP3      OH2            -7.7137760517      -14.2140475801       10.8978768871  WT01      723             0.0000000000
      2244       728  TIP3      H1             -8.6567543169      -14.3618316868       10.8258792469  WT01      723             0.0000000000
      2245       728  TIP3      H2             -7.4365010522      -13.9954406898       10.0081795153  WT01      723             0.0000000000
      2246       729  TIP3      OH2            -9.6385215048       -6.5772643680      -18.7550013510  WT01      724             0.0000000000
      2247       729  TIP3      H1            -10.0877011991       -6.4432182507      -17.9204349655  WT01      724             0.0000000000
      2248       729  TIP3      H2            -10.2931390804       -6.9935685529      -19.3157138142  WT01      724             0.0000000000
      2249       730  TIP3      OH2            16.4682575147      -15.1137377509       -8.2072687269  WT01      725             0.0000000000
      2250       730  TIP3      H1             15.7086799089      -14.7872857345       -8.6896614640  WT01      725             0.0000000000
      2251       730  TIP3      H2             16.2519689504      -14.9613341363       -7.2873642719  WT01      725             0.0000000000
      2252       731  TIP3      OH2           -14.2581421844      -15.1399642997       -2.0130175928  WT01      726             0.0000000000
      2253       731  TIP3      H1            -15.0794191557      -15.6294890499       -1.9671758390  WT01      726             0.0000000000
      2254       731  TIP3      H2            -14.3697040810      -14.4248723360       -1.3865758655  WT01      726             0.0000000000
      2255       732  TIP3      OH2           -11.1143102557        9.2822947244       -5.2546360599  WT01      727             0.0000000000
      2256       732  TIP3      H1            -10.3231901207        9.8163493325       -5.3263746034  WT01      727             0.0000000000
      2257       732  TIP3      H2            -10.7913859469        8.3852604242       -5.1693063108  WT01      727             0.0000000000
      2258       733  TIP3      OH2            -2.9568487512       -9.4889916520       -3.8578552571  WT01      728             0.0000000000
      2259       733  TIP3      H1             -2.5348482067       -9.2750547249       -3.0257625082  WT01      728             0.0000000000
      2260       733  TIP3      H2             -2.3185762605       -9.2326502525       -4.5235347038  WT01      728             0.0000000000
      2261       734  TIP3      OH2            -0.9239204867      -19.5880053203       -9.8862275572  WT01      729             0.0000000000
      2262       734  TIP3      H1             -1.3426026800      -18.9060558240       -9.3609829317  WT01      729             0.0000000000
      2263       734  TIP3      H2             -1.2852207140      -20.4072795290       -9.5478731163  WT01      729             0.0000000000
      2264       735  TIP3      OH2            -5.7701780325       -9.3377893613       -3.7244688408  WT01      730             0.0000000000
      2265       735  TIP3      H1             -4.8138303827       -9.3054585810       -3.7002675079  WT01      730             0.0000000000
      2266       735  TIP3      H2             -6.0333314011       -9.3476962103       -2.8042058512  WT01      730             0.0000000000
      2267       736  TIP3      OH2           -12.1513257678       -8.5145332071       -2.2529565099  WT01      731             0.0000000000
      2268       736  TIP3      H1            -12.3721715495       -8.7061972608       -1.3415159785  WT01      731             0.0000000000
      2269       736  TIP3      H2            -11.7218410913       -7.6596859401       -2.2211622680  WT01      731             0.0000000000
      2270       737  TIP3      OH2           -13.4375848399       17.0320225467      -14.8167548673  WT01      732             0.0000000000
      2271       737  TIP3      H1            -12.7050267350       17.6480321692      -14.8278264052  WT01      732             0.0000000000
      2272       737  TIP3      H2            -14.0327007182       17.3546630222      -15.4934911719  WT01      732             0.0000000000
      2273       738  TIP3      OH2            14.1664101135       -3.8162204199       -1.8887391559  WT01      733             0.0000000000
      2274       738  TIP3      H1             14.3515106519       -3.0863686333       -2.4797433617  WT01      733             0.0000000000
      2275       738  TIP3      H2             13.8971448859       -4.5304136866       -2.4663688175  WT01      733             0.0000000000
      2276       739  TIP3      OH2             5.1315979015        0.8459900782        4.0290989131  WT01      734             0.0000000000
      2277       739  TIP3      H1              5.0001601897        1.7268077573        3.6782197954  WT01      734             0.0000000000
      2278       739  TIP3      H2              4.9110280493        0.9220835329        4.9574256538  WT01      734             0.0000000000
      2279       740  TIP3      OH2            18.6684135857       -8.6149162759      -15.4354498526  WT01      735             0.0000000000
      2280       740  TIP3      H1             18.1345056707       -8.7154907174      -16.2235227750  WT01      735             0.0000000000
      2281       740  TIP3      H2             19.0888456810       -9.4670609714      -15.3200458568  WT01      735             0.0000000000
      2282       741  TIP3      OH2            18.7292904243      -17.6222094408       -1.3160214236  WT01      736             0.0000000000
      2283       741  TIP3      H1             17.8792877693      -17.3609722514       -1.6702564142  WT01      736             0.0000000000
      2284       741  TIP3      H2             18.6081253022      -17.6084088964       -0.3666214188  WT01      736             0.0000000000
      2285       742  TIP3      OH2            12.8773214166       -9.1408797279        6.9873434572  WT01      737             0.0000000000
      2286       742  TIP3      H1             12.4228842027       -8.3450057481        7.2635738646  WT01      737             0.0000000000
      2287       742  TIP3      H2             12.8481316595       -9.1142391100        6.0309596186  WT01      737             0.0000000000
      2288       743  TIP3      OH2           -13.6748982274       15.8416730323      -12.2745654337  WT01      738             0.0000000000
      2289       743  TIP3      H1            -13.5262322131       16.0736549330      -13.1912521986  WT01      738             0.0000000000
      2290       743  TIP3      H2            -14.5883791052       16.0772927160      -12.1124918036  WT01      738             0.0000000000
      2291       744  TIP3      OH2            -0.9585989327       -6.8474680971      -13.5374859499  WT01      739             0.0000000000
      2292       744  TIP3      H1             -1.4776920918       -7.6163051888      -13.3015545409  WT01      739             0.0000000000
      2293       744  TIP3      H2             -1.4578382270       -6.1063329583      -13.1943961016  WT01      739             0.0000000000
      2294       745  TIP3      OH2           -17.8266772540       19.3241735911      -15.3360258293  WT01      740             0.0000000000
      2295       745  TIP3      H1            -18.2272828295       19.0563627094      -14.5089682039  WT01      740             0.0000000000
      2296       745  TIP3      H2            -17.1715348154       19.9755327210      -15.0855233741  WT01      740             0.0000000000
      2297       746  TIP3      OH2            12.4297260258      -13.9755407046        3.8423425546  WT01      741             0.0000000000
      2298       746  TIP3      H1             13.0873352399      -13.6295280579        3.2389710430  WT01      741             0.0000000000
      2299       746  TIP3      H2             11.9306614999      -14.6029446138        3.3193408866  WT01      741             0.0000000000
      2300       747  TIP3      OH2            -7.3757937114       -1.5945753628       -9.0864988416  WT01      742             0.0000000000
      2301       747  TIP3      H1             -7.7971646236       -2.4517700895       -9.0240843729  WT01      742             0.0000000000
      2302       747  TIP3      H2             -7.2269932277       -1.4679656002      -10.0235475037  WT01      742             0.0000000000
      2303       748  TIP3      OH2            11.2998609528       -5.6805974308        6.1451748140  WT01      743             0.0000000000
      2304       748  TIP3      H1             11.0114905972       -5.5682649898        5.2393846773  WT01      743             0.0000000000
      2305       748  TIP3      H2             11.9003191514       -4.9510111507        6.2980983984  WT01      743             0.0000000000
      2306       749  TIP3      OH2           -14.3058120464       11.6587009539       -1.7000150604  WT01      744             0.0000000000
      2307       749  TIP3      H1            -13.5221684553       11.1115819396       -1.7528858223  WT01      744             0.0000000000
      2308       749  TIP3      H2            -14.7714430816       11.3370358973       -0.9280363422  WT01      744             0.0000000000
      2309       750  TIP3      OH2            -9.5556204167       -9.1818920029       -4.0462660167  WT01      745             0.0000000000
      2310       750  TIP3      H1             -8.7781603670       -9.5455124697       -3.6225115614  WT01      745             0.0000000000
      2311       750  TIP3      H2            -10.0242222427       -8.7324494181       -3.3429556281  WT01      745             0.0000000000
      2312       751  TIP3      OH2             9.3687773254       -7.0226729074        1.4394854401  WT01      746             0.0000000000
      2313       751  TIP3      H1              9.9882546879       -7.6774760788        1.7615295599  WT01      746             0.0000000000
      2314       751  TIP3      H2              8.5118733103       -7.4406302610        1.5246850326  WT01      746             0.0000000000
      2315       752  TIP3      OH2             9.2716276098        3.1991802895      -16.0975403323  WT01      747             0.0000000000
      2316       752  TIP3      H1              8.6465313006        3.8732269689      -16.3642751991  WT01      747             0.0000000000
      2317       752  TIP3      H2              9.6082093771        3.5039713886      -15.2548975190  WT01      747             0.0000000000
      2318       753  TIP3      OH2             0.2930283553      -17.0111466280        7.5814681850  WT01      748             0.0000000000
      2319       753  TIP3      H1              0.5428403612      -16.3797504561        6.9068092736  WT01      748             0.0000000000
      2320       753  TIP3      H2             -0.5541964602      -16.6995718539        7.8998438801  WT01      748             0.0000000000
      2321       754  TIP3      OH2           -16.3290015355      -10.9719230710       -9.9990386241  WT01      749             0.0000000000
      2322       754  TIP3      H1            -15.9330560752      -11.0645357397      -10.8655730418  WT01      749             0.0000000000
      2323       754  TIP3      H2            -17.2180057120      -10.6627749177      -10.1731960371  WT01      749             0.0000000000
      2324       755  TIP3      OH2            -0.2795581684       -8.5154454657       12.7405419062  WT01      750             0.0000000000
      2325       755  TIP3      H1             -1.0219885736       -7.9578158034       12.5079949987  WT01      750             0.0000000000
      2326       755  TIP3      H2             -0.3365717835       -8.6066517926       13.6916794697  WT01      750             0.0000000000
      2327       756  TIP3      OH2             1.6425228070       -6.2285235558      -18.1766541643  WT01      751             0.0000000000
      2328       756  TIP3      H1              1.2445418806       -5.4270911059      -17.8367291409  WT01      751             0.0000000000
      2329       756  TIP3      H2              2.5308386587       -5.9699174898      -18.4221122287  WT01      751             0.0000000000
      2330       757  TIP3      OH2             3.5542506852      -11.5112725878       -6.8197115988  WT01      752             0.0000000000
      2331       757  TIP3      H1              3.2418719917      -10.6104313010       -6.9041884525  WT01      752             0.0000000000
      2332       757  TIP3      H2              3.4142952522      -11.8959443496       -7.6849698975  WT01      752             0.0000000000
      2333       758  TIP3      OH2             4.5310506351       19.8877233066       -0.9823148513  WT01      753             0.0000000000
      2334       758  TIP3      H1              4.2635931301       20.7177412468       -0.5876396521  WT01      753             0.0000000000
      2335       758  TIP3      H2              5.0878417968       19.4761178346       -0.3214091479  WT01      753             0.0000000000
      2336       759  TIP3      OH2           -12.6876999722        2.6218449683       10.0547230654  WT01      754             0.0000000000
      2337       759  TIP3      H1            -11.8519927565        2.7709913532       10.4969680389  WT01      754             0.0000000000
      2338       759  TIP3      H2            -12.8336808507        1.6787784519       10.1292008465  WT01      754             0.0000000000
      2339       760  TIP3      OH2            -8.0026172187      -13.1775141713       13.4482601584  WT01      755             0.0000000000
      2340       760  TIP3      H1             -7.9882791296      -14.0117159563       13.9174441438  WT01      755             0.0000000000
      2341       760  TIP3      H2             -7.3550145735      -13.2829923325       12.7513261712  WT01      755             0.0000000000
      2342       761  TIP3      OH2             4.9579738454       -5.2618370565        1.5353745264  WT01      756             0.0000000000
      2343       761  TIP3      H1              5.5317457871       -4.5472890609        1.2588989724  WT01      756             0.0000000000
      2344       761  TIP3      H2              4.9050303314       -5.1726250099        2.4869364036  WT01      756             0.0000000000
      2345       762  TIP3      OH2            -1.0638523156       -1.8883172796       -3.9498110470  WT01      757             0.0000000000
      2346       762  TIP3      H1             -1.3432036597       -2.0801527299       -3.0546050386  WT01      757             0.0000000000
      2347       762  TIP3      H2             -0.7748374119       -0.9762539885       -3.9207808989  WT01      757             0.0000000000
      2348       763  TIP3      OH2            -0.4517171949       15.6754811908       -3.3683769054  WT01      758             0.0000000000
      2349       763  TIP3      H1             -0.3820360911       16.6075420319       -3.5748688988  WT01      758             0.0000000000
      2350       763  TIP3      H2              0.3306932934       15.4851879474       -2.8508306560  WT01      758             0.0000000000
      2351       764  TIP3      OH2             0.3572512556      -15.7211784994       -5.3297758250  WT01      759             0.0000000000
      2352       764  TIP3      H1              1.1460833130      -16.2290607552       -5.1399564096  WT01      759             0.0000000000
      2353       764  TIP3      H2              0.5541532845      -14.8421151467       -5.0061880873  WT01      759             0.0000000000
      2354       765  TIP3      OH2             7.0564775643      -19.2898460959       -2.2994506301  WT01      760             0.0000000000
      2355       765  TIP3      H1              7.9679063773      -19.5424928623       -2.4467562350  WT01      760             0.0000000000
      2356       765  TIP3      H2              6.6429623846      -20.0778840585       -1.9469833597  WT01      760             0.0000000000
      2357       766  TIP3      OH2           -15.3015648012      -14.4886799685        2.2297530596  WT01      761             0.0000000000
      2358       766  TIP3      H1            -15.3958915559      -14.1239167982        3.1096860707  WT01      761             0.0000000000
      2359       766  TIP3      H2            -14.5303469834      -15.0529256570        2.2852660460  WT01      761             0.0000000000
      2360       767  TIP3      OH2             2.5197483970      -17.3352377599       16.2551864636  WT01      762             0.0000000000
      2361       767  TIP3      H1              3.3964479065      -16.9971949799       16.0725478588  WT01      762             0.0000000000
      2362       767  TIP3      H2              1.9477084022      -16.8543933653       15.6570303606  WT01      762             0.0000000000
      2363       768  TIP3      OH2            -1.1599457021      -10.2892872256        3.3477620030  WT01      763             0.0000000000
      2364       768  TIP3      H1             -0.8136397642      -10.8412183779        4.0489581322  WT01      763             0.0000000000
      2365       768  TIP3      H2             -1.5179850464       -9.5247008065        3.7988132714  WT01      763             0.0000000000
      2366       769  TIP3      OH2             5.1615035222       16.5023120860       -1.1801717347  WT01      764             0.0000000000
      2367       769  TIP3      H1              5.9051026367       17.0563559965       -0.9428375542  WT01      764             0.0000000000
      2368       769  TIP3      H2              4.4926288330       16.7052872115       -0.5262301781  WT01      764             0.0000000000
      2369       770  TIP3      OH2            15.1248293762      -17.4665296786       -5.4720916136  WT01      765             0.0000000000
      2370       770  TIP3      H1             15.2922253686      -16.6837759310       -5.9969791858  WT01      765             0.0000000000
      2371       770  TIP3      H2             15.4801163871      -17.2567977613       -4.6083697407  WT01      765             0.0000000000
      2372       771  TIP3      OH2           -11.4953166616       -6.9774435534       -8.4987128430  WT01      766             0.0000000000
      2373       771  TIP3      H1            -12.2571112612       -6.6637074321       -8.0114034491  WT01      766             0.0000000000
      2374       771  TIP3      H2            -11.8379142479       -7.6765539415       -9.0555821006  WT01      766             0.0000000000
      2375       772  TIP3      OH2            -1.5353608780      -16.0366775084        9.8729967636  WT01      767             0.0000000000
      2376       772  TIP3      H1             -0.8653657144      -16.6980925405       10.0458216664  WT01      767             0.0000000000
      2377       772  TIP3      H2             -2.3105283854      -16.5397786740        9.6235245934  WT01      767             0.0000000000
      2378       773  TIP3      OH2            -9.7399526490       18.4467702126        7.5550721897  WT01      768             0.0000000000
      2379       773  TIP3      H1            -10.2616783416       17.6448195221        7.5852251794  WT01      768             0.0000000000
      2380       773  TIP3      H2             -9.3640252548       18.5216265126        8.4321736318  WT01      768             0.0000000000
      2381       774  TIP3      OH2             0.7475228556       19.3983132874       -1.3180126178  WT01      769             0.0000000000
      2382       774  TIP3      H1              0.1053783437       19.9507063656       -0.8722053456  WT01      769             0.0000000000
      2383       774  TIP3      H2              0.2940595713       19.0878010676       -2.1017121918  WT01      769             0.0000000000
      2384       775  TIP3      OH2            -4.1461985145        8.7296194473       -2.5309166803  WT01      770             0.0000000000
      2385       775  TIP3      H1             -3.3722005593        9.1853498683       -2.2000560452  WT01      770             0.0000000000
      2386       775  TIP3      H2             -3.8186907081        7.8767934379       -2.8166757492  WT01      770             0.0000000000
      2387       776  TIP3      OH2            -0.5332590972      -16.1635741079        0.2898034023  WT01      771             0.0000000000
      2388       776  TIP3      H1             -1.4853596624      -16.2615880562        0.2784196058  WT01      771             0.0000000000
      2389       776  TIP3      H2             -0.1992513088      -17.0596876702        0.2491697720  WT01      771             0.0000000000
      2390       777  TIP3      OH2             4.8542137749      -10.7903434833      -13.6402081076  WT01      772             0.0000000000
      2391       777  TIP3      H1              4.8791943177       -9.8954933297      -13.3013113885  WT01      772             0.0000000000
      2392       777  TIP3      H2              5.5064561897      -10.7999612487      -14.3407215920  WT01      772             0.0000000000
      2393       778  TIP3      OH2             5.8631125038       18.3205690751        7.8221209776  WT01      773             0.0000000000
      2394       778  TIP3      H1              4.9734852779       18.5907271901        8.0497386458  WT01      773             0.0000000000
      2395       778  TIP3      H2              6.1719004039       17.8399856982        8.5901844266  WT01      773             0.0000000000
      2396       779  TIP3      OH2             2.3261045188        9.5124523122        8.9318038156  WT01      774             0.0000000000
      2397       779  TIP3      H1              2.7098435323       10.3050373535        8.5565903657  WT01      774             0.0000000000
      2398       779  TIP3      H2              1.8655040453        9.0997615163        8.2012113698  WT01      774             0.0000000000
      2399       780  TIP3      OH2             4.7330623571      -12.6161169115        3.8107367287  WT01      775             0.0000000000
      2400       780  TIP3      H1              4.1426444789      -12.3855922266        4.5280211283  WT01      775             0.0000000000
      2401       780  TIP3      H2              4.1526693229      -12.8039563715        3.0731107570  WT01      775             0.0000000000
      2402       781  TIP3      OH2           -13.4856240339        6.4285422736      -19.3278422816  WT01      776             0.0000000000
      2403       781  TIP3      H1            -13.8338750597        5.9192279093      -18.5960281573  WT01      776             0.0000000000
      2404       781  TIP3      H2            -13.3450461255        7.3034648229      -18.9659304201  WT01      776             0.0000000000
      2405       782  TIP3      OH2            -2.7426631250        6.9902074162       14.6154780286  WT01      777             0.0000000000
      2406       782  TIP3      H1             -3.0381107102        6.0956357455       14.4461143325  WT01      777             0.0000000000
      2407       782  TIP3      H2             -3.0250546735        7.1705024385       15.5121276420  WT01      777             0.0000000000
      2408       783  TIP3      OH2             3.1283339371       14.5137407660        3.4455981382  WT01      778             0.0000000000
      2409       783  TIP3      H1              3.5587192996       14.7715472834        2.6304073321  WT01      778             0.0000000000
      2410       783  TIP3      H2              3.8107722633       14.0667844408        3.9463373769  WT01      778             0.0000000000
      2411       784  TIP3      OH2           -12.5475482671       -6.8016944053       10.1128673908  WT01      779             0.0000000000
      2412       784  TIP3      H1            -12.0013412612       -6.4243431043       10.8024293629  WT01      779             0.0000000000
      2413       784  TIP3      H2            -12.4678985525       -6.1893024882        9.3815235087  WT01      779             0.0000000000
      2414       785  TIP3      OH2           -10.4302965391      -11.6760054568       13.7656970731  WT01      780             0.0000000000
      2415       785  TIP3      H1            -10.5103438832      -10.7436362187       13.5644215463  WT01      780             0.0000000000
      2416       785  TIP3      H2             -9.6657987734      -11.9643855987       13.2670871344  WT01      780             0.0000000000
      2417       786  TIP3      OH2             3.3825577662      -11.5614642466       19.9014461311  WT01      781             0.0000000000
      2418       786  TIP3      H1              3.4434515740      -11.2820482478       20.8149287280  WT01      781             0.0000000000
      2419       786  TIP3      H2              3.4669580235      -12.5143166729       19.9358068825  WT01      781             0.0000000000
      2420       787  TIP3      OH2            -8.0903948978        6.0543672317      -17.9344270105  WT01      782             0.0000000000
      2421       787  TIP3      H1             -8.0466219450        5.2029873689      -18.3697063104  WT01      782             0.0000000000
      2422       787  TIP3      H2             -7.6337408666        5.9228495031      -17.1035226876  WT01      782             0.0000000000
      2423       788  TIP3      OH2             7.8680219959       19.0170161329      -19.7589050448  WT01      783             0.0000000000
      2424       788  TIP3      H1              7.7474871131       19.7129681832      -20.4049343760  WT01      783             0.0000000000
      2425       788  TIP3      H2              8.5258399523       19.3615418448      -19.1549105242  WT01      783             0.0000000000
      2426       789  TIP3      OH2             5.0906841206       -9.4044783846        3.7819743222  WT01      784             0.0000000000
      2427       789  TIP3      H1              5.2690206176      -10.2463786292        3.3628897447  WT01      784             0.0000000000
      2428       789  TIP3      H2              5.7702110430       -8.8202440596        3.4456036542  WT01      784             0.0000000000
      2429       790  TIP3      OH2            -1.6688274208       -9.4985215592      -13.2659928524  WT01      785             0.0000000000
      2430       790  TIP3      H1             -1.8389163517       -9.9854187861      -12.4596228027  WT01      785             0.0000000000
      2431       790  TIP3      H2             -1.2551003900      -10.1356700351      -13.8483188562  WT01      785             0.0000000000
      2432       791  TIP3      OH2             7.9451046003       -3.4536770089        7.5025525566  WT01      786             0.0000000000
      2433       791  TIP3      H1              7.8119301455       -4.2850563118        7.0472451544  WT01      786             0.0000000000
      2434       791  TIP3      H2              8.8581054646       -3.2268610868        7.3258727039  WT01      786             0.0000000000
      2435       792  TIP3      OH2            -0.8001569790       -7.7350518809      -16.7314088477  WT01      787             0.0000000000
      2436       792  TIP3      H1             -0.3823416664       -6.9088092892      -16.9742778562  WT01      787             0.0000000000
      2437       792  TIP3      H2             -1.6159167991       -7.4748030029      -16.3035791520  WT01      787             0.0000000000
      2438       793  TIP3      OH2           -11.3999771934      -14.5089905595       12.3467888880  WT01      788             0.0000000000
      2439       793  TIP3      H1            -10.9627154843      -14.8596279609       11.5708459638  WT01      788             0.0000000000
      2440       793  TIP3      H2            -11.5706770965      -13.5919004253       12.1322217893  WT01      788             0.0000000000
      2441       794  TIP3      OH2           -16.5366238586      -10.0788803203       19.6968267658  WT01      789             0.0000000000
      2442       794  TIP3      H1            -16.0189757981      -10.8129134573       20.0276857243  WT01      789             0.0000000000
      2443       794  TIP3      H2            -16.0908471748       -9.3007251789       20.0314751411  WT01      789             0.0000000000
      2444       795  TIP3      OH2           -14.1205362566       12.5844187312       16.7230447030  WT01      790             0.0000000000
      2445       795  TIP3      H1            -14.1210891253       11.7139656738       16.3248701431  WT01      790             0.0000000000
      2446       795  TIP3      H2            -13.2782093397       12.9629758115       16.4712278785  WT01      790             0.0000000000
      2447       796  TIP3      OH2             3.3391391624       19.0467825496        8.7312633801  WT01      791             0.0000000000
      2448       796  TIP3      H1              3.1628612558       19.7654157898        8.1240367529  WT01      791             0.0000000000
      2449       796  TIP3      H2              2.4982209021       18.8809104235        9.1573792426  WT01      791             0.0000000000
      2450       797  TIP3      OH2            10.1444302385      -19.8973665097      -18.6772596783  WT01      792             0.0000000000
      2451       797  TIP3      H1             10.6340754639      -19.1423031603      -19.0033864984  WT01      792             0.0000000000
      2452       797  TIP3      H2             10.7533253146      -20.3416164812      -18.0872422547  WT01      792             0.0000000000
      2453       798  TIP3      OH2            -3.2120146761      -18.3267448752      -15.2390768357  WT01      793             0.0000000000
      2454       798  TIP3      H1             -2.6908264896      -17.5244739669      -15.2081563747  WT01      793             0.0000000000
      2455       798  TIP3      H2             -2.6513144731      -18.9600607466      -15.6871372116  WT01      793             0.0000000000
      2456       799  TIP3      OH2             9.3279715587      -12.8120375420       14.0494537615  WT01      794             0.0000000000
      2457       799  TIP3      H1              8.7970588237      -12.8793028582       14.8430776371  WT01      794             0.0000000000
      2458       799  TIP3      H2             10.2320917460      -12.8450804360       14.3620344152  WT01      794             0.0000000000
      2459       800  TIP3      OH2            18.5174667517       11.7148000620      -15.8271465414  WT01      795             0.0000000000
      2460       800  TIP3      H1             19.0342008972       12.3040781085      -16.3766636183  WT01      795             0.0000000000
      2461       800  TIP3      H2             17.8802349049       12.2849542704      -15.3969238512  WT01      795             0.0000000000
      2462       801  TIP3      OH2           -10.9738907879       16.9993641265       -0.5707911708  WT01      796             0.0000000000
      2463       801  TIP3      H1            -11.1141188495       17.3567209996        0.3060577142  WT01      796             0.0000000000
      2464       801  TIP3      H2            -10.9827746232       16.0501973475       -0.4473597561  WT01      796             0.0000000000
      2465       802  TIP3      OH2             7.8530311513      -19.4428944476       17.7291354077  WT01      797             0.0000000000
      2466       802  TIP3      H1              8.3798529367      -19.6874700059       16.9682980967  WT01      797             0.0000000000
      2467       802  TIP3      H2              7.1188817638      -18.9490282774       17.3639605267  WT01      797             0.0000000000
      2468       803  TIP3      OH2            -0.4080940201      -10.4797520300        6.6173895972  WT01      798             0.0000000000
      2469       803  TIP3      H1             -0.9896858617       -9.8042655396        6.9662459315  WT01      798             0.0000000000
      2470       803  TIP3      H2              0.4451675410      -10.0510262226        6.5512783162  WT01      798             0.0000000000
      2471       804  TIP3      OH2           -18.4842708283      -11.3780643900        9.5287644812  WT01      799             0.0000000000
      2472       804  TIP3      H1            -18.5770989439      -12.2410280236        9.1251452062  WT01      799             0.0000000000
      2473       804  TIP3      H2            -17.9807849247      -10.8689271486        8.8935377301  WT01      799             0.0000000000
      2474       805  TIP3      OH2             1.9741479624       11.9775753971       16.9457026393  WT01      800             0.0000000000
      2475       805  TIP3      H1              2.8035497868       11.6844453609       16.5683444455  WT01      800             0.0000000000
      2476       805  TIP3      H2              2.0148885591       12.9329041778       16.9018969812  WT01      800             0.0000000000
      2477       806  TIP3      OH2           -16.0101828144       17.1187509975      -16.7989097448  WT01      801             0.0000000000
      2478       806  TIP3      H1            -16.0602173432       16.9250499431      -17.7349697100  WT01      801             0.0000000000
      2479       806  TIP3      H2            -16.4748383974       17.9498167460      -16.7006411235  WT01      801             0.0000000000
      2480       807  TIP3      OH2            -1.7249945594       -7.5373866028      -19.8015982088  WT01      802             0.0000000000
      2481       807  TIP3      H1             -2.4868023670       -7.8184542107      -19.2947632503  WT01      802             0.0000000000
      2482       807  TIP3      H2             -1.9165889667       -6.6303094184      -20.0397879979  WT01      802             0.0000000000
      2483       808  TIP3      OH2            -1.8396068732       -4.0992340711       17.0657164470  WT01      803             0.0000000000
      2484       808  TIP3      H1             -2.3162955628       -3.9207862080       16.2550648175  WT01      803             0.0000000000
      2485       808  TIP3      H2             -1.1789021718       -3.4082237716       17.1126831864  WT01      803             0.0000000000
      2486       809  TIP3      OH2            -4.8226377836       -6.3603357370        9.6829933185  WT01      804             0.0000000000
      2487       809  TIP3      H1             -4.3421878346       -7.1696434612        9.5085781093  WT01      804             0.0000000000
      2488       809  TIP3      H2             -4.1930163129       -5.6631389223        9.4993490529  WT01      804             0.0000000000
      2489       810  TIP3      OH2             6.1073952386      -16.5439820612       18.5056882226  WT01      805             0.0000000000
      2490       810  TIP3      H1              5.6284496427      -16.7156384274       17.6949003223  WT01      805             0.0000000000
      2491       810  TIP3      H2              5.8878921675      -17.2816208883       19.0748447684  WT01      805             0.0000000000
      2492       811  TIP3      OH2             2.7541814930       -7.6826720203       18.8181742614  WT01      806             0.0000000000
      2493       811  TIP3      H1              3.1704056341       -7.1051521859       18.1782835549  WT01      806             0.0000000000
      2494       811  TIP3      H2              3.3641364718       -8.4141456981       18.9137409577  WT01      806             0.0000000000
      2495       812  TIP3      OH2             0.2693217110      -13.1241759970        0.3309080392  WT01      807             0.0000000000
      2496       812  TIP3      H1              0.3196278563      -13.9284152905       -0.1857158680  WT01      807             0.0000000000
      2497       812  TIP3      H2              0.1072215222      -13.4233958770        1.2255715531  WT01      807             0.0000000000
      2498       813  TIP3      OH2            13.0835404678        2.7639989426      -17.0033018783  WT01      808             0.0000000000
      2499       813  TIP3      H1             13.1572946144        3.7177859552      -17.0362028141  WT01      808             0.0000000000
      2500       813  TIP3      H2             13.2943563944        2.5381031217      -16.0973440789  WT01      808             0.0000000000
      2501       814  TIP3      OH2            -3.7226941449       -1.6173956464        4.4366411932  WT01      809             0.0000000000
      2502       814  TIP3      H1             -3.0382799786       -1.5747953464        5.1044692208  WT01      809             0.0000000000
      2503       814  TIP3      H2             -3.4235861609       -2.2940779004        3.8292966846  WT01      809             0.0000000000
      2504       815  TIP3      OH2           -12.0421036146      -14.6608722699        1.0947202576  WT01      810             0.0000000000
      2505       815  TIP3      H1            -11.8953867533      -15.3573838911        0.4547378085  WT01      810             0.0000000000
      2506       815  TIP3      H2            -11.1642536580      -14.4116994637        1.3837257548  WT01      810             0.0000000000
      2507       816  TIP3      OH2            -9.6746996458      -17.1269965802        3.9996041803  WT01      811             0.0000000000
      2508       816  TIP3      H1             -8.9158101470      -17.6892602132        4.1550974168  WT01      811             0.0000000000
      2509       816  TIP3      H2             -9.4961443216      -16.7106327530        3.1564013751  WT01      811             0.0000000000
      2510       817  TIP3      OH2            13.0368639297       -8.6429377910       10.1487611839  WT01      812             0.0000000000
      2511       817  TIP3      H1             13.7984183491       -9.2214801525       10.1093224561  WT01      812             0.0000000000
      2512       817  TIP3      H2             12.6055443692       -8.8698011937       10.9726108330  WT01      812             0.0000000000
      2513       818  TIP3      OH2            16.3702596131      -18.9084203395       11.4492755349  WT01      813             0.0000000000
      2514       818  TIP3      H1             16.1559984882      -19.4986779093       12.1717158319  WT01      813             0.0000000000
      2515       818  TIP3      H2             15.6453148744      -19.0107855842       10.8326652094  WT01      813             0.0000000000
      2516       819  TIP3      OH2           -18.9215040427       -5.7534910088        6.3669610522  WT01      814             0.0000000000
      2517       819  TIP3      H1            -18.3960182165       -4.9683081040        6.5205327407  WT01      814             0.0000000000
      2518       819  TIP3      H2            -18.3543179989       -6.3242454730        5.8485296254  WT01      814             0.0000000000
      2519       820  TIP3      OH2             4.7608931044      -15.6674781283       16.0114915265  WT01      815             0.0000000000
      2520       820  TIP3      H1              4.3150769940      -15.2607312293       15.2684997588  WT01      815             0.0000000000
      2521       820  TIP3      H2              5.6119555453      -15.2309912340       16.0489578291  WT01      815             0.0000000000
      2522       821  TIP3      OH2           -13.4213870515       11.2919456533       -8.8429911597  WT01      816             0.0000000000
      2523       821  TIP3      H1            -13.4623764655       11.3079355831       -7.8868028931  WT01      816             0.0000000000
      2524       821  TIP3      H2            -14.2913865970       11.5741952353       -9.1252459654  WT01      816             0.0000000000
      2525       822  TIP3      OH2           -17.4775014648       -8.4470902213        7.7692127571  WT01      817             0.0000000000
      2526       822  TIP3      H1            -18.1555606237       -7.9895859984        8.2663621050  WT01      817             0.0000000000
      2527       822  TIP3      H2            -17.1627945733       -7.7985028202        7.1395098378  WT01      817             0.0000000000
      2528       823  TIP3      OH2             1.5654814336      -15.7938384898        5.5155550125  WT01      818             0.0000000000
      2529       823  TIP3      H1              2.1571444711      -15.4374782673        6.1782570971  WT01      818             0.0000000000
      2530       823  TIP3      H2              2.0788894029      -16.4706924478        5.0745189736  WT01      818             0.0000000000
      2531       824  TIP3      OH2           -15.1721833763        0.4371047226        6.2688621364  WT01      819             0.0000000000
      2532       824  TIP3      H1            -15.7446550919       -0.0665213355        6.8475405786  WT01      819             0.0000000000
      2533       824  TIP3      H2            -14.9481423347        1.2187914618        6.7738406156  WT01      819             0.0000000000
      2534       825  TIP3      OH2            11.3997244583       19.7935733079        1.8481848664  WT01      820             0.0000000000
      2535       825  TIP3      H1             11.0428768292       19.1096256368        2.4148480501  WT01      820             0.0000000000
      2536       825  TIP3      H2             10.6675147812       20.0451162789        1.2853110497  WT01      820             0.0000000000
      2537       826  TIP3      OH2            -5.7766948588      -10.4172525186       12.2709340142  WT01      821             0.0000000000
      2538       826  TIP3      H1             -6.1194317559      -10.2844370630       13.1547458070  WT01      821             0.0000000000
      2539       826  TIP3      H2             -4.8309847396      -10.5038658603       12.3907768724  WT01      821             0.0000000000
      2540       827  TIP3      OH2           -10.4030694753      -15.6464321242       10.1477964940  WT01      822             0.0000000000
      2541       827  TIP3      H1            -10.1237573585      -16.5607146682       10.0997966795  WT01      822             0.0000000000
      2542       827  TIP3      H2            -11.1503048788      -15.5921828096        9.5520380910  WT01      822             0.0000000000
      2543       828  TIP3      OH2            -3.7961342181       17.4189793499       13.5919281664  WT01      823             0.0000000000
      2544       828  TIP3      H1             -3.3894859157       18.2537680980       13.8243000993  WT01      823             0.0000000000
      2545       828  TIP3      H2             -4.3630591736       17.6267178252       12.8491814857  WT01      823             0.0000000000
      2546       829  TIP3      OH2             6.9894761933       14.4954517021       16.0179674546  WT01      824             0.0000000000
      2547       829  TIP3      H1              6.5779425836       15.1846069030       16.5394432529  WT01      824             0.0000000000
      2548       829  TIP3      H2              7.3141531598       13.8675966953       16.6634244779  WT01      824             0.0000000000
      2549       830  TIP3      OH2             5.1167463369      -14.7354433524        1.3907203177  WT01      825             0.0000000000
      2550       830  TIP3      H1              5.5617754850      -14.4764332780        2.1976246799  WT01      825             0.0000000000
      2551       830  TIP3      H2              4.3948499549      -14.1128408915        1.3043281851  WT01      825             0.0000000000
      2552       831  TIP3      OH2           -17.4287904935      -14.2254759355        4.6785694054  WT01      826             0.0000000000
      2553       831  TIP3      H1            -17.5961483202      -14.8903175372        5.3465580382  WT01      826             0.0000000000
      2554       831  TIP3      H2            -17.4852970590      -13.3935205740        5.1485578047  WT01      826             0.0000000000
      2555       832  TIP3      OH2             7.2854029323       -9.0911784891      -15.3218944651  WT01      827             0.0000000000
      2556       832  TIP3      H1              7.0201400659       -8.1946542294      -15.5271057575  WT01      827             0.0000000000
      2557       832  TIP3      H2              6.9171635207       -9.6186108819      -16.0307291552  WT01      827             0.0000000000
      2558       833  TIP3      OH2            -4.2800738197       19.6961487498        1.7084879198  WT01      828             0.0000000000
      2559       833  TIP3      H1             -4.4879984284       19.0595955435        2.3924463862  WT01      828             0.0000000000
      2560       833  TIP3      H2             -4.7358716774       19.3714903922        0.9319075474  WT01      828             0.0000000000
      2561       834  TIP3      OH2            12.9622347153      -14.4966538722      -17.9469331096  WT01      829             0.0000000000
      2562       834  TIP3      H1             12.2593164120      -15.1174544959      -17.7552451979  WT01      829             0.0000000000
      2563       834  TIP3      H2             13.3156986181      -14.7865213857      -18.7879277024  WT01      829             0.0000000000
      2564       835  TIP3      OH2            -6.5063739332       -7.4999227331        2.0958695061  WT01      830             0.0000000000
      2565       835  TIP3      H1             -6.5160211857       -8.2051375914        2.7430253954  WT01      830             0.0000000000
      2566       835  TIP3      H2             -6.7623467158       -6.7195306438        2.5874973456  WT01      830             0.0000000000
      2567       836  TIP3      OH2            -9.5195316411        6.7185565932       13.5006304162  WT01      831             0.0000000000
      2568       836  TIP3      H1             -9.5554730267        5.9073104886       14.0074043162  WT01      831             0.0000000000
      2569       836  TIP3      H2             -8.7278679245        7.1593716196       13.8091470014  WT01      831             0.0000000000
      2570       837  TIP3      OH2             1.7321081860      -15.2604745727      -14.1744622615  WT01      832             0.0000000000
      2571       837  TIP3      H1              2.0044253333      -14.3870000595      -14.4557405173  WT01      832             0.0000000000
      2572       837  TIP3      H2              2.5174970727      -15.7991851250      -14.2703113536  WT01      832             0.0000000000
      2573       838  TIP3      OH2            -9.0639084947       18.9430239260       16.0097111184  WT01      833             0.0000000000
      2574       838  TIP3      H1             -8.1960985483       19.2715518303       15.7747491555  WT01      833             0.0000000000
      2575       838  TIP3      H2             -8.9106034204       18.3832069566       16.7708512672  WT01      833             0.0000000000
      2576       839  TIP3      OH2            -3.1678008909      -10.8620935204       10.8438511477  WT01      834             0.0000000000
      2577       839  TIP3      H1             -3.3861809182      -11.7593318751       11.0958537457  WT01      834             0.0000000000
      2578       839  TIP3      H2             -2.2174502228      -10.8089527715       10.9450513427  WT01      834             0.0000000000
      2579       840  TIP3      OH2            17.0731511717        9.5465652597        9.3825502462  WT01      835             0.0000000000
      2580       840  TIP3      H1             16.3580957734       10.1155175063        9.6675431047  WT01      835             0.0000000000
      2581       840  TIP3      H2             17.1208685058        8.8663136208       10.0542738314  WT01      835             0.0000000000
      2582       841  TIP3      OH2             4.8856186657      -13.5988163553       11.7288564205  WT01      836             0.0000000000
      2583       841  TIP3      H1              5.3525981522      -14.0712565535       11.0396813852  WT01      836             0.0000000000
      2584       841  TIP3      H2              4.0935966066      -13.2724323631       11.3017658463  WT01      836             0.0000000000
      2585       842  TIP3      OH2             5.0716971584       -4.4396252008      -14.0734433407  WT01      837             0.0000000000
      2586       842  TIP3      H1              4.4705803006       -3.8155391490      -14.4801458540  WT01      837             0.0000000000
      2587       842  TIP3      H2              5.7130397275       -3.8936224236      -13.6186989209  WT01      837             0.0000000000
      2588       843  TIP3      OH2           -16.8637377977      -19.6178198055      -18.7307937983  WT01      838             0.0000000000
      2589       843  TIP3      H1            -16.4743163098      -19.3041341399      -19.5469947655  WT01      838             0.0000000000
      2590       843  TIP3      H2            -17.4013032472      -18.8872225497      -18.4250441482  WT01      838             0.0000000000
      2591       844  TIP3      OH2             2.7867227208       17.1910225787        4.9978392755  WT01      839             0.0000000000
      2592       844  TIP3      H1              2.3861632683       17.4560152993        5.8258264699  WT01      839             0.0000000000
      2593       844  TIP3      H2              2.5962589877       16.2555936470        4.9276389121  WT01      839             0.0000000000
      2594       845  TIP3      OH2             0.8431885883       -6.0692595933      -10.8158202875  WT01      840             0.0000000000
      2595       845  TIP3      H1              1.4358109079       -5.7634818357      -10.1291394590  WT01      840             0.0000000000
      2596       845  TIP3      H2              0.5780785836       -6.9441210348      -10.5319788626  WT01      840             0.0000000000
      2597       846  TIP3      OH2           -11.2094772449       19.6933795520       14.5840287559  WT01      841             0.0000000000
      2598       846  TIP3      H1            -12.0078998711       19.4321205887       15.0428281404  WT01      841             0.0000000000
      2599       846  TIP3      H2            -10.5095991428       19.5541237868       15.2220023330  WT01      841             0.0000000000
      2600       847  TIP3      OH2             7.0439450094       -8.8770910002      -12.4741804343  WT01      842             0.0000000000
      2601       847  TIP3      H1              7.0936945344       -7.9773624881      -12.1513098714  WT01      842             0.0000000000
      2602       847  TIP3      H2              7.2474233719       -8.8089072238      -13.4070144708  WT01      842             0.0000000000
      2603       848  TIP3      OH2            -5.2166377063       14.2191856349       11.0749912663  WT01      843             0.0000000000
      2604       848  TIP3      H1             -4.5710816268       14.4361456235       10.4023713716  WT01      843             0.0000000000
      2605       848  TIP3      H2             -5.0680818009       14.8636462297       11.7669692254  WT01      843             0.0000000000
      2606       849  TIP3      OH2           -11.5517582261       -9.0212655655       13.7001224158  WT01      844             0.0000000000
      2607       849  TIP3      H1            -11.6600644682       -9.1517221676       12.7580594434  WT01      844             0.0000000000
      2608       849  TIP3      H2            -10.8084726997       -8.4228892056       13.7756483669  WT01      844             0.0000000000
      2609       850  TIP3      OH2            15.2491828577       -6.3997204342      -16.6727443591  WT01      845             0.0000000000
      2610       850  TIP3      H1             15.0792910449       -7.2032240500      -16.1810630373  WT01      845             0.0000000000
      2611       850  TIP3      H2             15.1721063557       -6.6593323844      -17.5908362168  WT01      845             0.0000000000
      2612       851  TIP3      OH2            -3.0297742906       14.9789549376      -17.8058598050  WT01      846             0.0000000000
      2613       851  TIP3      H1             -3.1949648608       14.0538249094      -17.6239853495  WT01      846             0.0000000000
      2614       851  TIP3      H2             -3.8983529013       15.3811563118      -17.8119477305  WT01      846             0.0000000000
      2615       852  TIP3      OH2             2.0168795931      -12.9713962762       11.1681941505  WT01      847             0.0000000000
      2616       852  TIP3      H1              1.2744053543      -13.0739248672       10.5728356839  WT01      847             0.0000000000
      2617       852  TIP3      H2              1.6187457140      -12.7845052036       12.0183664580  WT01      847             0.0000000000
      2618       853  TIP3      OH2           -11.0043726529       -7.3764689702        3.6821498808  WT01      848             0.0000000000
      2619       853  TIP3      H1            -11.5770609583       -6.6280647219        3.5143672923  WT01      848             0.0000000000
      2620       853  TIP3      H2            -11.5483738542       -7.9885785183        4.1777468997  WT01      848             0.0000000000
      2621       854  TIP3      OH2           -13.1480706618        6.1841894146       11.1659081872  WT01      849             0.0000000000
      2622       854  TIP3      H1            -12.4432645757        6.4863814421       11.7387608477  WT01      849             0.0000000000
      2623       854  TIP3      H2            -13.6765760443        6.9654573564       11.0030147409  WT01      849             0.0000000000
      2624       855  TIP3      OH2           -18.3487628701       -7.9195380174      -15.8778279831  WT01      850             0.0000000000
      2625       855  TIP3      H1            -19.0797515278       -8.5159606707      -16.0395914277  WT01      850             0.0000000000
      2626       855  TIP3      H2            -18.7632396729       -7.0973530878      -15.6161932518  WT01      850             0.0000000000
      2627       856  TIP3      OH2            -1.5646470237      -18.3110283436        6.0995862126  WT01      851             0.0000000000
      2628       856  TIP3      H1             -1.6188896748      -18.4724282404        5.1576522344  WT01      851             0.0000000000
      2629       856  TIP3      H2             -0.6270976917      -18.3257023608        6.2919861457  WT01      851             0.0000000000
      2630       857  TIP3      OH2            -2.7314521651       -5.4120611828      -15.9511294059  WT01      852             0.0000000000
      2631       857  TIP3      H1             -2.9067517047       -5.8542870640      -15.1205042483  WT01      852             0.0000000000
      2632       857  TIP3      H2             -2.5026049526       -4.5164710358      -15.7025754822  WT01      852             0.0000000000
      2633       858  TIP3      OH2            18.1663343352      -12.1341305045       14.0397577214  WT01      853             0.0000000000
      2634       858  TIP3      H1             17.4048130302      -11.9428804591       13.4922720749  WT01      853             0.0000000000
      2635       858  TIP3      H2             18.8896262000      -12.2292501794       13.4200538108  WT01      853             0.0000000000
      2636       859  TIP3      OH2           -13.1441937408        4.0153773572      -15.8420590926  WT01      854             0.0000000000
      2637       859  TIP3      H1            -13.7649186860        3.8662852314      -16.5552939008  WT01      854             0.0000000000
      2638       859  TIP3      H2            -13.5676048236        4.6716768844      -15.2886823704  WT01      854             0.0000000000
      2639       860  TIP3      OH2            -3.1286707095        1.7933055285      -19.1432658215  WT01      855             0.0000000000
      2640       860  TIP3      H1             -3.6155654615        1.1952476533      -18.5762630972  WT01      855             0.0000000000
      2641       860  TIP3      H2             -2.3141553411        1.9629991174      -18.6699787927  WT01      855             0.0000000000
      2642       861  TIP3      OH2           -13.5231859624      -17.2450436199       19.2053390185  WT01      856             0.0000000000
      2643       861  TIP3      H1            -12.9997982268      -16.6097605867       18.7167568279  WT01      856             0.0000000000
      2644       861  TIP3      H2            -12.9269127940      -17.5846365281       19.8726970756  WT01      856             0.0000000000
      2645       862  TIP3      OH2            11.8525163576       -7.8259560488       19.7092809769  WT01      857             0.0000000000
      2646       862  TIP3      H1             11.5295850739       -8.1994439251       20.5293139051  WT01      857             0.0000000000
      2647       862  TIP3      H2             11.2184322771       -8.1090928304       19.0504921239  WT01      857             0.0000000000
      2648       863  TIP3      OH2            13.1889034334        8.0820499980       17.2838810593  WT01      858             0.0000000000
      2649       863  TIP3      H1             14.1007273956        7.9270079287       17.0373636569  WT01      858             0.0000000000
      2650       863  TIP3      H2             13.2102705258        8.9002767914       17.7801472913  WT01      858             0.0000000000
      2651       864  TIP3      OH2            -0.8804579386        4.5593922220       19.5142553780  WT01      859             0.0000000000
      2652       864  TIP3      H1             -0.7763575115        5.3252251034       20.0789631873  WT01      859             0.0000000000
      2653       864  TIP3      H2             -1.2358698003        3.8827941102       20.0905619065  WT01      859             0.0000000000
      2654       865  TIP3      OH2             2.7686916572        5.2739952540       18.9281320827  WT01      860             0.0000000000
      2655       865  TIP3      H1              3.3883970965        5.6272119587       18.2898257776  WT01      860             0.0000000000
      2656       865  TIP3      H2              2.0266257127        4.9754393244       18.4023618839  WT01      860             0.0000000000
      2657       866  TIP3      OH2            15.2106881934        6.8454092222      -12.4111878878  WT01      861             0.0000000000
      2658       866  TIP3      H1             14.4396587239        6.4916674005      -11.9677782670  WT01      861             0.0000000000
      2659       866  TIP3      H2             14.8881862966        7.1229518753      -13.2686226744  WT01      861             0.0000000000
      2660       867  TIP3      OH2            -2.9246932401       14.1511414739      -14.2966908604  WT01      862             0.0000000000
      2661       867  TIP3      H1             -2.5713097102       14.0477867028      -13.4131357217  WT01      862             0.0000000000
      2662       867  TIP3      H2             -2.3662392132       14.8142432248      -14.7024703311  WT01      862             0.0000000000
      2663       868  TIP3      OH2            -7.3447557985       14.0926177312       13.7685537585  WT01      863             0.0000000000
      2664       868  TIP3      H1             -7.1149562124       13.3650339288       14.3465206882  WT01      863             0.0000000000
      2665       868  TIP3      H2             -7.2462631741       14.8728822037       14.3141895041  WT01      863             0.0000000000
      2666       869  TIP3      OH2           -10.2746667361        6.7263136623       -5.2114753845  WT01      864             0.0000000000
      2667       869  TIP3      H1            -10.0964406662        6.1820878328       -4.4444776494  WT01      864             0.0000000000
      2668       869  TIP3      H2            -10.5860115582        6.1109441048       -5.8752648997  WT01      864             0.0000000000
      2669       870  TIP3      OH2            -8.9925403226        9.2696301223       18.8096413857  WT01      865             0.0000000000
      2670       870  TIP3      H1             -8.5981335719        8.8230359891       18.0604893275  WT01      865             0.0000000000
      2671       870  TIP3      H2             -9.0280692816        8.6025820363       19.4952187738  WT01      865             0.0000000000
      2672       871  TIP3      OH2           -10.0679933614        1.2339188802        5.0662014130  WT01      866             0.0000000000
      2673       871  TIP3      H1            -10.5576744473        2.0506701453        4.9694459673  WT01      866             0.0000000000
      2674       871  TIP3      H2             -9.7587322774        1.0334304599        4.1828024169  WT01      866             0.0000000000
      2675       872  TIP3      OH2            -0.9183718513        7.5179443579       11.3511567105  WT01      867             0.0000000000
      2676       872  TIP3      H1             -0.2998144982        7.0989799256       11.9495607683  WT01      867             0.0000000000
      2677       872  TIP3      H2             -0.8807994275        8.4469110001       11.5788431211  WT01      867             0.0000000000
      2678       873  TIP3      OH2             2.9693033013       11.5081222374      -17.4813262497  WT01      868             0.0000000000
      2679       873  TIP3      H1              3.1262537436       11.1569155056      -18.3578262219  WT01      868             0.0000000000
      2680       873  TIP3      H2              2.2506662975       10.9786172051      -17.1357584725  WT01      868             0.0000000000
      2681       874  TIP3      OH2            -8.3102281667       -2.9163833511        5.8641207866  WT01      869             0.0000000000
      2682       874  TIP3      H1             -7.6626430569       -2.8649682871        5.1611116631  WT01      869             0.0000000000
      2683       874  TIP3      H2             -7.8352167114       -3.3020361105        6.6002375420  WT01      869             0.0000000000
      2684       875  TIP3      OH2             7.0550093901        9.7027763941      -18.5381308120  WT01      870             0.0000000000
      2685       875  TIP3      H1              6.4762833558        9.2865850986      -17.8993094022  WT01      870             0.0000000000
      2686       875  TIP3      H2              7.9323732322        9.4064361970      -18.2959594113  WT01      870             0.0000000000
      2687       876  TIP3      OH2            -1.9461575939       -2.2938289908      -14.3225061876  WT01      871             0.0000000000
      2688       876  TIP3      H1             -2.0970815980       -2.8229362296      -13.5392442353  WT01      871             0.0000000000
      2689       876  TIP3      H2             -2.8163501799       -2.1748438194      -14.7030836481  WT01      871             0.0000000000
      2690       877  TIP3      OH2            16.9731284961      -11.6391413514       -9.8402944462  WT01      872             0.0000000000
      2691       877  TIP3      H1             17.6604556227      -11.2908874108      -10.4082138286  WT01      872             0.0000000000
      2692       877  TIP3      H2             16.8514117170      -10.9662493147       -9.1704936223  WT01      872             0.0000000000
      2693       878  TIP3      OH2             8.9584690923       -0.9116485391      -14.7484350983  WT01      873             0.0000000000
      2694       878  TIP3      H1              8.1317351050       -1.1498620386      -15.1679551263  WT01      873             0.0000000000
      2695       878  TIP3      H2              8.6997146788       -0.4050184084      -13.9786274111  WT01      873             0.0000000000
      2696       879  TIP3      OH2            10.8314354644        4.8694027933       -1.3604886936  WT01      874             0.0000000000
      2697       879  TIP3      H1              9.9045765794        4.6929052638       -1.1992031073  WT01      874             0.0000000000
      2698       879  TIP3      H2             10.8334780698        5.5114534959       -2.0704172352  WT01      874             0.0000000000
      2699       880  TIP3      OH2            -4.7744066729       -2.0180108245        0.2503528569  WT01      875             0.0000000000
      2700       880  TIP3      H1             -5.6813745477       -2.2919875675        0.1140523452  WT01      875             0.0000000000
      2701       880  TIP3      H2             -4.4007731416       -2.6963233324        0.8129556802  WT01      875             0.0000000000
      2702       881  TIP3      OH2            19.2294595010       11.1343004724        8.8478403336  WT01      876             0.0000000000
      2703       881  TIP3      H1             19.2736999440       11.4251193482        7.9369621992  WT01      876             0.0000000000
      2704       881  TIP3      H2             18.4655748144       10.5583328913        8.8790387656  WT01      876             0.0000000000
      2705       882  TIP3      OH2            -4.1341690300        4.6565885755      -17.6928638824  WT01      877             0.0000000000
      2706       882  TIP3      H1             -3.8496987360        4.0305409392      -17.0270014190  WT01      877             0.0000000000
      2707       882  TIP3      H2             -4.9147542870        5.0659044389      -17.3195289234  WT01      877             0.0000000000
      2708       883  TIP3      OH2            -4.9006072866       -1.4214801133      -15.0780393464  WT01      878             0.0000000000
      2709       883  TIP3      H1             -4.9200784695       -1.0937163380      -14.1789155553  WT01      878             0.0000000000
      2710       883  TIP3      H2             -5.6666539746       -1.9918193774      -15.1422063679  WT01      878             0.0000000000
      2711       884  TIP3      OH2            -2.6567937278      -10.9568123636      -11.0752406965  WT01      879             0.0000000000
      2712       884  TIP3      H1             -3.0310711308      -11.7074877541      -11.5363639931  WT01      879             0.0000000000
      2713       884  TIP3      H2             -3.2847990109      -10.7656047931      -10.3786196800  WT01      879             0.0000000000
      2714       885  TIP3      OH2           -15.4036605871      -14.0849818653       13.1153499291  WT01      880             0.0000000000
      2715       885  TIP3      H1            -15.2649130325      -13.4119317775       12.4490283052  WT01      880             0.0000000000
      2716       885  TIP3      H2            -14.9479161070      -14.8555662995       12.7766341046  WT01      880             0.0000000000
      2717       886  TIP3      OH2             2.7387951631       14.8324981833       -6.4113305858  WT01      881             0.0000000000
      2718       886  TIP3      H1              2.7694268773       13.8790602726       -6.3322757967  WT01      881             0.0000000000
      2719       886  TIP3      H2              2.7151713693       15.1475901343       -5.5077871227  WT01      881             0.0000000000
      2720       887  TIP3      OH2            10.2572505933      -10.3730213702        6.2276557249  WT01      882             0.0000000000
      2721       887  TIP3      H1             10.5711627147      -11.2570883739        6.0376122453  WT01      882             0.0000000000
      2722       887  TIP3      H2             11.0219609289       -9.9172688636        6.5794220770  WT01      882             0.0000000000
      2723       888  TIP3      OH2           -13.7712234208      -13.4648304047       -9.4784333116  WT01      883             0.0000000000
      2724       888  TIP3      H1            -13.0028379686      -14.0196678681       -9.3443773641  WT01      883             0.0000000000
      2725       888  TIP3      H2            -13.8813334885      -13.4329054160      -10.4287429343  WT01      883             0.0000000000
      2726       889  TIP3      OH2            18.3384491526       -2.7582888957        4.3228991372  WT01      884             0.0000000000
      2727       889  TIP3      H1             18.6139884067       -3.6500185279        4.1104651624  WT01      884             0.0000000000
      2728       889  TIP3      H2             17.5717412026       -2.6059843380        3.7704554278  WT01      884             0.0000000000
      2729       890  TIP3      OH2            -2.8708142898        2.6491738279      -12.7349718194  WT01      885             0.0000000000
      2730       890  TIP3      H1             -3.3708713998        2.0649685625      -12.1649903236  WT01      885             0.0000000000
      2731       890  TIP3      H2             -2.3002934605        3.1350637462      -12.1394478638  WT01      885             0.0000000000
      2732       891  TIP3      OH2            -5.6986492625       16.5031074530      -18.9337665673  WT01      886             0.0000000000
      2733       891  TIP3      H1             -6.4790543674       16.2257205320      -18.4539164040  WT01      886             0.0000000000
      2734       891  TIP3      H2             -5.8708202205       16.2478033951      -19.8400826326  WT01      886             0.0000000000
      2735       892  TIP3      OH2            14.1481517209      -13.7641835743       17.2131123531  WT01      887             0.0000000000
      2736       892  TIP3      H1             14.3649306299      -13.5422015138       16.3075944458  WT01      887             0.0000000000
      2737       892  TIP3      H2             14.5595744976      -13.0747449800       17.7343009319  WT01      887             0.0000000000
      2738       893  TIP3      OH2           -19.5509967330        3.5434958024       12.1143712946  WT01      888             0.0000000000
      2739       893  TIP3      H1            -18.8114347404        3.0093765168       11.8245498688  WT01      888             0.0000000000
      2740       893  TIP3      H2            -19.3869092778        3.6957929351       13.0450230563  WT01      888             0.0000000000
      2741       894  TIP3      OH2             6.8360058072       -2.3001583490       -9.6611747625  WT01      889             0.0000000000
      2742       894  TIP3      H1              6.9803282005       -2.0324193762      -10.5687642623  WT01      889             0.0000000000
      2743       894  TIP3      H2              7.0856003622       -3.2240220473       -9.6409204770  WT01      889             0.0000000000
      2744       895  TIP3      OH2             3.0749431053        8.5379591975       -7.0679128371  WT01      890             0.0000000000
      2745       895  TIP3      H1              2.2305365273        8.5006752963       -7.5171558145  WT01      890             0.0000000000
      2746       895  TIP3      H2              2.9088984159        9.0681898884       -6.2884794618  WT01      890             0.0000000000
      2747       896  TIP3      OH2            -4.5993957674       -4.3510515543       -5.1249790850  WT01      891             0.0000000000
      2748       896  TIP3      H1             -5.2728509700       -3.9807522759       -5.6955650518  WT01      891             0.0000000000
      2749       896  TIP3      H2             -5.0022729651       -5.1376879580       -4.7573856369  WT01      891             0.0000000000
      2750       897  TIP3      OH2           -17.1050023419       -4.2776159594      -16.1265129454  WT01      892             0.0000000000
      2751       897  TIP3      H1            -18.0232623322       -4.5058453075      -16.2712256462  WT01      892             0.0000000000
      2752       897  TIP3      H2            -17.1210600653       -3.6810055225      -15.3781614590  WT01      892             0.0000000000
      2753       898  TIP3      OH2           -13.2545036126       -8.6889261194        0.3310369199  WT01      893             0.0000000000
      2754       898  TIP3      H1            -12.4892449511       -8.8356885306        0.8869791712  WT01      893             0.0000000000
      2755       898  TIP3      H2            -13.3919122925       -7.7419949658        0.3569609629  WT01      893             0.0000000000
      2756       899  TIP3      OH2           -14.2615214388      -12.4602467192        4.2127098118  WT01      894             0.0000000000
      2757       899  TIP3      H1            -14.2010599075      -11.9128369929        4.9956011234  WT01      894             0.0000000000
      2758       899  TIP3      H2            -13.8908739192      -11.9213237164        3.5138434266  WT01      894             0.0000000000
      2759       900  TIP3      OH2            -6.9774853976       -2.5041487382      -17.3244888778  WT01      895             0.0000000000
      2760       900  TIP3      H1             -7.0093342825       -2.3821101012      -18.2733429397  WT01      895             0.0000000000
      2761       900  TIP3      H2             -7.8840922084       -2.3941048302      -17.0378074520  WT01      895             0.0000000000
      2762       901  TIP3      OH2            11.0721605500        7.9962463646      -12.1686629841  WT01      896             0.0000000000
      2763       901  TIP3      H1             11.6649590945        7.2455589524      -12.1327449410  WT01      896             0.0000000000
      2764       901  TIP3      H2             10.2493395527        7.6366317535      -12.5001365863  WT01      896             0.0000000000
      2765       902  TIP3      OH2            12.9343213227       -4.5053511519      -12.4817011520  WT01      897             0.0000000000
      2766       902  TIP3      H1             13.6282607744       -4.0261129781      -12.9344821378  WT01      897             0.0000000000
      2767       902  TIP3      H2             13.2437870974       -5.4108472724      -12.4584735564  WT01      897             0.0000000000
      2768       903  TIP3      OH2             1.9839805919        0.1658643332        9.8768184232  WT01      898             0.0000000000
      2769       903  TIP3      H1              2.2898230402       -0.4534252009       10.5395194726  WT01      898             0.0000000000
      2770       903  TIP3      H2              1.6695093270        0.9181093588       10.3782833334  WT01      898             0.0000000000
      2771       904  TIP3      OH2            -2.7979583644      -13.5181796300       11.7058784650  WT01      899             0.0000000000
      2772       904  TIP3      H1             -2.0456140849      -13.8085836877       12.2215095148  WT01      899             0.0000000000
      2773       904  TIP3      H2             -2.7257142789      -14.0014419322       10.8827927159  WT01      899             0.0000000000
      2774       905  TIP3      OH2             2.8759329871      -18.0466661189      -12.8358829127  WT01      900             0.0000000000
      2775       905  TIP3      H1              2.7361693676      -18.5058271238      -13.6640550647  WT01      900             0.0000000000
      2776       905  TIP3      H2              3.8106047153      -17.8402845055      -12.8306674294  WT01      900             0.0000000000
      2777       906  TIP3      OH2            -4.8978667533        3.4360851171       10.6084055838  WT01      901             0.0000000000
      2778       906  TIP3      H1             -5.3496569515        3.8814759404        9.8916459013  WT01      901             0.0000000000
      2779       906  TIP3      H2             -4.0404376779        3.8593954424       10.6514817974  WT01      901             0.0000000000
      2780       907  TIP3      OH2             0.0323142578      -14.2314581081       16.1254835180  WT01      902             0.0000000000
      2781       907  TIP3      H1              0.5760564344      -14.3549366757       16.9035126305  WT01      902             0.0000000000
      2782       907  TIP3      H2             -0.5478715268      -13.5043331730       16.3511062012  WT01      902             0.0000000000
      2783       908  TIP3      OH2           -15.0878609881        8.5252131990      -13.9789480586  WT01      903             0.0000000000
      2784       908  TIP3      H1            -15.5820022786        8.4309349499      -14.7932992161  WT01      903             0.0000000000
      2785       908  TIP3      H2            -14.2550782439        8.0859084472      -14.1513314892  WT01      903             0.0000000000
      2786       909  TIP3      OH2             5.6483375527       11.7051119075      -10.3219033559  WT01      904             0.0000000000
      2787       909  TIP3      H1              4.8439172255       11.3331104956      -10.6835035466  WT01      904             0.0000000000
      2788       909  TIP3      H2              5.4987140309       11.7274271481       -9.3767331899  WT01      904             0.0000000000
      2789       910  TIP3      OH2           -10.3976355793       -4.7845547815        0.2243142651  WT01      905             0.0000000000
      2790       910  TIP3      H1            -11.0084843320       -4.0483728874        0.1906715679  WT01      905             0.0000000000
      2791       910  TIP3      H2             -9.8474805229       -4.6755453362       -0.5513648991  WT01      905             0.0000000000
      2792       911  TIP3      OH2            13.5908671320      -12.2243306588       12.4222991217  WT01      906             0.0000000000
      2793       911  TIP3      H1             14.2659987493      -12.8382598455       12.1333007408  WT01      906             0.0000000000
      2794       911  TIP3      H2             12.9339270987      -12.2450189998       11.7264301712  WT01      906             0.0000000000
      2795       912  TIP3      OH2           -12.7514168549       -4.3223805626        8.4795409485  WT01      907             0.0000000000
      2796       912  TIP3      H1            -12.7005901724       -3.3717813005        8.3794934477  WT01      907             0.0000000000
      2797       912  TIP3      H2            -12.4619886469       -4.6683630113        7.6352902342  WT01      907             0.0000000000
      2798       913  TIP3      OH2             7.4090885900       -4.9579194027      -17.5463091466  WT01      908             0.0000000000
      2799       913  TIP3      H1              7.5668709320       -5.8857391697      -17.7209144833  WT01      908             0.0000000000
      2800       913  TIP3      H2              7.0539908464       -4.6162882070      -18.3669342313  WT01      908             0.0000000000
      2801       914  TIP3      OH2           -19.4806660562        1.4915814864       -4.3855317096  WT01      909             0.0000000000
      2802       914  TIP3      H1            -19.2524090467        1.1572583002       -3.5181456619  WT01      909             0.0000000000
      2803       914  TIP3      H2            -19.2636091660        2.4231084251       -4.3484415503  WT01      909             0.0000000000
      2804       915  TIP3      OH2             0.3862878058        9.8648862292       18.0222369723  WT01      910             0.0000000000
      2805       915  TIP3      H1              0.1730012005        9.1989497213       17.3685786499  WT01      910             0.0000000000
      2806       915  TIP3      H2              0.8900704314       10.5210924761       17.5407515220  WT01      910             0.0000000000
      2807       916  TIP3      OH2             7.4715621584      -11.0779806059       -7.0357659703  WT01      911             0.0000000000
      2808       916  TIP3      H1              6.7302890244      -11.3122648932       -6.4773245458  WT01      911             0.0000000000
      2809       916  TIP3      H2              7.0875289981      -10.9498944693       -7.9031437913  WT01      911             0.0000000000
      2810       917  TIP3      OH2             6.8888139972       -6.0522795486      -10.4817905438  WT01      912             0.0000000000
      2811       917  TIP3      H1              7.2661618886       -5.3496171310       -9.9525402185  WT01      912             0.0000000000
      2812       917  TIP3      H2              6.0360204248       -5.7148208904      -10.7558281103  WT01      912             0.0000000000
      2813       918  TIP3      OH2             2.2530477561      -10.1364846666        3.5183308096  WT01      913             0.0000000000
      2814       918  TIP3      H1              3.0519274199       -9.6240725383        3.6426566098  WT01      913             0.0000000000
      2815       918  TIP3      H2              1.5704825120       -9.4832931609        3.3644563298  WT01      913             0.0000000000
      2816       919  TIP3      OH2            -7.3381776601      -14.1430164841       17.9145935951  WT01      914             0.0000000000
      2817       919  TIP3      H1             -6.6380700014      -13.4909562784       17.8846175151  WT01      914             0.0000000000
      2818       919  TIP3      H2             -8.0654224915      -13.6946326706       18.3462169520  WT01      914             0.0000000000
      2819       920  TIP3      OH2            -6.8456355473       -7.9181359028      -19.2992270067  WT01      915             0.0000000000
      2820       920  TIP3      H1             -7.5100921560       -7.2885716352      -19.0192661894  WT01      915             0.0000000000
      2821       920  TIP3      H2             -6.2016855796       -7.9183087454      -18.5910178425  WT01      915             0.0000000000
      2822       921  TIP3      OH2             2.1581313736       -9.1643152762        6.8121479678  WT01      916             0.0000000000
      2823       921  TIP3      H1              2.5013127840       -8.4832550071        6.2336885998  WT01      916             0.0000000000
      2824       921  TIP3      H2              2.5672926119       -8.9881838889        7.6593767601  WT01      916             0.0000000000
      2825       922  TIP3      OH2            -1.7762769408       -7.2074820336       -9.6977164184  WT01      917             0.0000000000
      2826       922  TIP3      H1             -2.2440328723       -7.7204350811      -10.3567424958  WT01      917             0.0000000000
      2827       922  TIP3      H2             -2.3898756387       -6.5148708385       -9.4527303342  WT01      917             0.0000000000
      2828       923  TIP3      OH2             4.5995717410        7.0991272382      -12.5777431203  WT01      918             0.0000000000
      2829       923  TIP3      H1              3.8642258413        6.5443054514      -12.3176066105  WT01      918             0.0000000000
      2830       923  TIP3      H2              4.3334714277        7.9836184236      -12.3265504110  WT01      918             0.0000000000
      2831       924  TIP3      OH2            -6.5717607549       -4.3342922545        8.1494984765  WT01      919             0.0000000000
      2832       924  TIP3      H1             -6.4412586136       -5.0107029791        8.8140807015  WT01      919             0.0000000000
      2833       924  TIP3      H2             -6.3773547629       -4.7716364113        7.3205423800  WT01      919             0.0000000000
      2834       925  TIP3      OH2            10.9563535160        2.1769288220       19.3910526175  WT01      920             0.0000000000
      2835       925  TIP3      H1             10.4143471212        2.0640381344       20.1718961176  WT01      920             0.0000000000
      2836       925  TIP3      H2             11.4516022151        2.9791449188       19.5566118849  WT01      920             0.0000000000
      2837       926  TIP3      OH2            -3.1464615234      -18.5770801102      -18.2361030335  WT01      921             0.0000000000
      2838       926  TIP3      H1             -3.2333241579      -19.5294053815      -18.2780943611  WT01      921             0.0000000000
      2839       926  TIP3      H2             -3.7973915358      -18.3050183234      -17.5891839395  WT01      921             0.0000000000
      2840       927  TIP3      OH2           -12.2301158484       -9.5594805711       11.0294566371  WT01      922             0.0000000000
      2841       927  TIP3      H1            -13.1856223225       -9.6163279082       11.0267053911  WT01      922             0.0000000000
      2842       927  TIP3      H2            -12.0355737373       -8.7644723523       10.5331229689  WT01      922             0.0000000000
      2843       928  TIP3      OH2             6.1296522333      -18.2546515957      -14.8470478208  WT01      923             0.0000000000
      2844       928  TIP3      H1              6.2096679889      -18.5831792333      -13.9515597521  WT01      923             0.0000000000
      2845       928  TIP3      H2              6.0280023275      -19.0411703619      -15.3830397405  WT01      923             0.0000000000
      2846       929  TIP3      OH2            -0.7041846795       -1.5550473130       16.8662995989  WT01      924             0.0000000000
      2847       929  TIP3      H1             -0.7929621220       -1.0490712526       16.0586247862  WT01      924             0.0000000000
      2848       929  TIP3      H2             -0.6911587121       -0.8971371656       17.5614372638  WT01      924             0.0000000000
      2849       930  TIP3      OH2           -12.1906345062        8.9141234555      -18.8105971132  WT01      925             0.0000000000
      2850       930  TIP3      H1            -11.4633385794        8.3955214235      -19.1545802209  WT01      925             0.0000000000
      2851       930  TIP3      H2            -11.8627472798        9.8133974781      -18.8053046451  WT01      925             0.0000000000
      2852       931  TIP3      OH2             6.2534327705       -6.4886966714      -15.3758056757  WT01      926             0.0000000000
      2853       931  TIP3      H1              6.4448917180       -6.0278811880      -16.1926437090  WT01      926             0.0000000000
      2854       931  TIP3      H2              6.0133310448       -5.7961766519      -14.7601767331  WT01      926             0.0000000000
      2855       932  TIP3      OH2            -8.3297700944        8.1840308173      -10.7570172099  WT01      927             0.0000000000
      2856       932  TIP3      H1             -7.8562330986        8.7157532172      -11.3967560740  WT01      927             0.0000000000
      2857       932  TIP3      H2             -7.6487022035        7.6765524265      -10.3156058124  WT01      927             0.0000000000
      2858       933  TIP3      OH2             8.6915968165        7.2380384657       -0.1638286693  WT01      928             0.0000000000
      2859       933  TIP3      H1              7.7499122584        7.0916020915       -0.2533741459  WT01      928             0.0000000000
      2860       933  TIP3      H2              8.8221071310        8.1422154903       -0.4495956671  WT01      928             0.0000000000
      2861       934  TIP3      OH2            -6.3690123076        8.1169896952      -12.7226172112  WT01      929             0.0000000000
      2862       934  TIP3      H1             -6.4675773654        8.9480273341      -13.1872602820  WT01      929             0.0000000000
      2863       934  TIP3      H2             -5.5908265066        8.2371677176      -12.1783599989  WT01      929             0.0000000000
      2864       935  TIP3      OH2           -13.6323964534       -1.3332074987      -11.7824271248  WT01      930             0.0000000000
      2865       935  TIP3      H1            -14.4823186778       -1.7068189818      -11.5494496942  WT01      930             0.0000000000
      2866       935  TIP3      H2            -13.8063143202       -0.4001717171      -11.9066391089  WT01      930             0.0000000000
      2867       936  TIP3      OH2            15.8870859143      -16.9335763168      -12.1909309580  WT01      931             0.0000000000
      2868       936  TIP3      H1             16.0280890678      -16.0419033353      -12.5091592027  WT01      931             0.0000000000
      2869       936  TIP3      H2             16.1232100550      -17.4926981692      -12.9311065826  WT01      931             0.0000000000
      2870       937  TIP3      OH2             2.3411144261       -1.3506042698       12.4469771191  WT01      932             0.0000000000
      2871       937  TIP3      H1              2.2359173700       -2.1629253219       11.9516995214  WT01      932             0.0000000000
      2872       937  TIP3      H2              2.9045536210       -1.5895225289       13.1829704276  WT01      932             0.0000000000
      2873       938  TIP3      OH2             0.4469684008       -1.9232470696      -10.1140490668  WT01      933             0.0000000000
      2874       938  TIP3      H1              0.4316697662       -1.9735123364       -9.1582922118  WT01      933             0.0000000000
      2875       938  TIP3      H2             -0.0031801522       -2.7169136895      -10.4033437049  WT01      933             0.0000000000
      2876       939  TIP3      OH2            -6.3324923023        1.3889418268       19.9142572563  WT01      934             0.0000000000
      2877       939  TIP3      H1             -6.1941117515        1.1787402352       18.9907325273  WT01      934             0.0000000000
      2878       939  TIP3      H2             -6.8240231590        0.6434454711       20.2590244408  WT01      934             0.0000000000
      2879       940  TIP3      OH2           -13.3494317404       -6.4836014615       18.2970564511  WT01      935             0.0000000000
      2880       940  TIP3      H1            -12.4546763576       -6.7926869085       18.4388690120  WT01      935             0.0000000000
      2881       940  TIP3      H2            -13.3976906783       -6.3115515006       17.3566832821  WT01      935             0.0000000000
      2882       941  TIP3      OH2            -0.9677841119       10.4144435513        9.8459608532  WT01      936             0.0000000000
      2883       941  TIP3      H1             -0.4048263851       10.3594742478        9.0737634791  WT01      936             0.0000000000
      2884       941  TIP3      H2             -0.4707441005       10.9457379968       10.4679811504  WT01      936             0.0000000000
      2885       942  TIP3      OH2           -16.5805101582       11.7106559291       17.7067213058  WT01      937             0.0000000000
      2886       942  TIP3      H1            -16.6132674587       11.5231913642       18.6448128830  WT01      937             0.0000000000
      2887       942  TIP3      H2            -15.6836294906       12.0073715430       17.5524594390  WT01      937             0.0000000000
      2888       943  TIP3      OH2            -2.4303856643       -1.6246576398      -10.7240913572  WT01      938             0.0000000000
      2889       943  TIP3      H1             -1.8737825348       -2.3991540847      -10.6429740093  WT01      938             0.0000000000
      2890       943  TIP3      H2             -2.6226337044       -1.3716528992       -9.8211732528  WT01      938             0.0000000000
      2891       944  TIP3      OH2             4.1005546532       13.8319471438       10.0753623252  WT01      939             0.0000000000
      2892       944  TIP3      H1              3.8905385742       13.5446256671       10.9639406428  WT01      939             0.0000000000
      2893       944  TIP3      H2              4.1361076174       13.0236435058        9.5638811168  WT01      939             0.0000000000
      2894       945  TIP3      OH2            17.8547639875      -11.7096585543      -14.1596689440  WT01      940             0.0000000000
      2895       945  TIP3      H1             18.3730864352      -12.3929945020      -14.5846696895  WT01      940             0.0000000000
      2896       945  TIP3      H2             18.5031565142      -11.0922912382      -13.8210296973  WT01      940             0.0000000000
      2897       946  TIP3      OH2             0.8704836329        8.6317854415      -19.4056791511  WT01      941             0.0000000000
      2898       946  TIP3      H1              0.9270604966        9.0071915498      -20.2843720004  WT01      941             0.0000000000
      2899       946  TIP3      H2              0.5432230104        9.3467746526      -18.8598561723  WT01      941             0.0000000000
      2900       947  TIP3      OH2             5.7298042750      -12.5644385663      -11.7469503717  WT01      942             0.0000000000
      2901       947  TIP3      H1              5.9862222864      -13.3358981446      -12.2522539771  WT01      942             0.0000000000
      2902       947  TIP3      H2              5.4047055666      -11.9461112558      -12.4013309781  WT01      942             0.0000000000
      2903       948  TIP3      OH2           -17.2415092957        7.4199360856      -19.4968146239  WT01      943             0.0000000000
      2904       948  TIP3      H1            -17.1217193494        7.4097936571      -20.4464352381  WT01      943             0.0000000000
      2905       948  TIP3      H2            -17.0696162995        6.5188028655      -19.2236049452  WT01      943             0.0000000000
      2906       949  TIP3      OH2             0.3380731324        5.7205483569       15.9779157437  WT01      944             0.0000000000
      2907       949  TIP3      H1             -0.4452850660        5.3944061164       15.5349563968  WT01      944             0.0000000000
      2908       949  TIP3      H2              1.0436002401        5.1537617003       15.6661206228  WT01      944             0.0000000000
      2909       950  TIP3      OH2           -15.4353665355      -19.7217635594       -6.5918135962  WT01      945             0.0000000000
      2910       950  TIP3      H1            -15.4785818209      -18.9233183943       -7.1179785592  WT01      945             0.0000000000
      2911       950  TIP3      H2            -16.3018184031      -19.7923469949       -6.1911754169  WT01      945             0.0000000000
      2912       951  TIP3      OH2             1.2106591876       -7.6594900775        2.9437236807  WT01      946             0.0000000000
      2913       951  TIP3      H1              0.3863672327       -7.2625539125        3.2251775226  WT01      946             0.0000000000
      2914       951  TIP3      H2              1.8568562584       -6.9588662725        3.0319701567  WT01      946             0.0000000000
      2915       952  TIP3      OH2            -0.1518796294       -0.2949560751       13.6263018876  WT01      947             0.0000000000
      2916       952  TIP3      H1              0.5729880203       -0.7796595130       13.2315091840  WT01      947             0.0000000000
      2917       952  TIP3      H2             -0.9232199116       -0.8353956183       13.4554479141  WT01      947             0.0000000000
      2918       953  TIP3      OH2            -7.8420841772      -16.9759903544       17.3619221961  WT01      948             0.0000000000
      2919       953  TIP3      H1             -7.7457864237      -16.0659441994       17.6425902377  WT01      948             0.0000000000
      2920       953  TIP3      H2             -8.0752670684      -16.9179792832       16.4353736189  WT01      948             0.0000000000
      2921       954  TIP3      OH2             9.3147443218       11.9837480580        6.1427253215  WT01      949             0.0000000000
      2922       954  TIP3      H1              9.6410648061       12.1053356470        7.0343324159  WT01      949             0.0000000000
      2923       954  TIP3      H2              8.6688278117       11.2812771337        6.2172791513  WT01      949             0.0000000000
      2924       955  TIP3      OH2             0.6269873132       11.5693212031       -9.0244863233  WT01      950             0.0000000000
      2925       955  TIP3      H1              0.6690550840       10.6303185689       -9.2054177102  WT01      950             0.0000000000
      2926       955  TIP3      H2             -0.1721110401       11.6788407312       -8.5090456324  WT01      950             0.0000000000
      2927       956  TIP3      OH2           -17.8696134788        8.8092988667        8.2299539096  WT01      951             0.0000000000
      2928       956  TIP3      H1            -18.1777320772        8.0367832325        8.7037833466  WT01      951             0.0000000000
      2929       956  TIP3      H2            -17.7978617755        9.4890477843        8.9000471220  WT01      951             0.0000000000
      2930       957  TIP3      OH2            -0.5230979667       -2.7224386439       12.0449885559  WT01      952             0.0000000000
      2931       957  TIP3      H1             -1.2367529803       -2.2824130921       11.5831380970  WT01      952             0.0000000000
      2932       957  TIP3      H2              0.1412602006       -2.8728409300       11.3725012408  WT01      952             0.0000000000
      2933       958  TIP3      OH2            -8.6818665170      -12.8663236601        4.0837897034  WT01      953             0.0000000000
      2934       958  TIP3      H1             -8.7369019059      -11.9381228705        4.3110477313  WT01      953             0.0000000000
      2935       958  TIP3      H2             -9.5931627615      -13.1507826787        4.0141188159  WT01      953             0.0000000000
      2936       959  TIP3      OH2             6.5413703453       -2.1324778937       -5.7873450854  WT01      954             0.0000000000
      2937       959  TIP3      H1              6.4752491986       -2.8190659912       -6.4510141214  WT01      954             0.0000000000
      2938       959  TIP3      H2              5.8881809540       -2.3708721125       -5.1295125637  WT01      954             0.0000000000
      2939       960  TIP3      OH2           -15.0665827799      -15.6874030898      -18.9703214614  WT01      955             0.0000000000
      2940       960  TIP3      H1            -14.4850353190      -16.3120688796      -19.4037116005  WT01      955             0.0000000000
      2941       960  TIP3      H2            -15.6784576906      -15.4148880889      -19.6541171027  WT01      955             0.0000000000
      2942       961  TIP3      OH2           -10.1332357309        4.9517382913        9.6318523493  WT01      956             0.0000000000
      2943       961  TIP3      H1             -9.8936949255        4.8139967098        8.7154030762  WT01      956             0.0000000000
      2944       961  TIP3      H2            -10.4034755132        5.8690306693        9.6740064042  WT01      956             0.0000000000
      2945       962  TIP3      OH2             5.7078850714      -15.6493891813      -11.7461814763  WT01      957             0.0000000000
      2946       962  TIP3      H1              4.9204670599      -15.5484148838      -11.2113834980  WT01      957             0.0000000000
      2947       962  TIP3      H2              6.3724434937      -15.9703987172      -11.1366350939  WT01      957             0.0000000000
      2948       963  TIP3      OH2             9.6156235606        6.3924464644       19.2929545193  WT01      958             0.0000000000
      2949       963  TIP3      H1              9.7227806567        7.0593314700       18.6147115266  WT01      958             0.0000000000
      2950       963  TIP3      H2              9.2608874432        5.6337151940       18.8295745916  WT01      958             0.0000000000
      2951       964  TIP3      OH2           -11.6926250174       16.5719520755      -10.1986779678  WT01      959             0.0000000000
      2952       964  TIP3      H1            -11.4587816644       17.4522123122      -10.4931113440  WT01      959             0.0000000000
      2953       964  TIP3      H2            -12.2339937274       16.2186798786      -10.9046174027  WT01      959             0.0000000000
      2954       965  TIP3      OH2            14.3656021619        0.4576901498       -1.4568470772  WT01      960             0.0000000000
      2955       965  TIP3      H1             14.5114371243       -0.0615570252       -0.6660586441  WT01      960             0.0000000000
      2956       965  TIP3      H2             13.6143271584        1.0117125359       -1.2450054481  WT01      960             0.0000000000
      2957       966  TIP3      OH2           -16.5841719637       -8.1173683316      -17.9932058592  WT01      961             0.0000000000
      2958       966  TIP3      H1            -16.9906064401       -8.0682142816      -17.1279736899  WT01      961             0.0000000000
      2959       966  TIP3      H2            -17.2177105851       -7.7040958041      -18.5797776317  WT01      961             0.0000000000
      2960       967  TIP3      OH2            -4.0673455520        7.8591049166      -11.2400577107  WT01      962             0.0000000000
      2961       967  TIP3      H1             -4.2072883399        6.9350764775      -11.0331295326  WT01      962             0.0000000000
      2962       967  TIP3      H2             -3.4142727393        8.1512096655      -10.6041311992  WT01      962             0.0000000000
      2963       968  TIP3      OH2            -7.8906741987        3.0924515867      -18.3611468874  WT01      963             0.0000000000
      2964       968  TIP3      H1             -7.9735673913        2.4939767952      -17.6187262158  WT01      963             0.0000000000
      2965       968  TIP3      H2             -7.1895338961        2.7177804807      -18.8943031960  WT01      963             0.0000000000
      2966       969  TIP3      OH2            -4.4903475634       -5.5352964303      -18.1282725398  WT01      964             0.0000000000
      2967       969  TIP3      H1             -4.1592189538       -6.1156108573      -18.8137073075  WT01      964             0.0000000000
      2968       969  TIP3      H2             -3.7626237592       -5.4520474190      -17.5120587149  WT01      964             0.0000000000
      2969       970  TIP3      OH2            -5.2372119864      -10.1660255302        8.4651687027  WT01      965             0.0000000000
      2970       970  TIP3      H1             -5.8732420997      -10.0225616079        9.1659651132  WT01      965             0.0000000000
      2971       970  TIP3      H2             -4.4579403610       -9.6866235942        8.7464893891  WT01      965             0.0000000000
      2972       971  TIP3      OH2             8.1147022905        0.9944538968       14.2604369418  WT01      966             0.0000000000
      2973       971  TIP3      H1              8.3422620493        1.8409406447       13.8758481316  WT01      966             0.0000000000
      2974       971  TIP3      H2              8.9197614902        0.7002440702       14.6865262210  WT01      966             0.0000000000
      2975       972  TIP3      OH2            12.2532734158        3.4216600284       -4.3129613805  WT01      967             0.0000000000
      2976       972  TIP3      H1             12.7445079382        3.3566540114       -3.4940018743  WT01      967             0.0000000000
      2977       972  TIP3      H2             11.6092177263        2.7152973557       -4.2632034207  WT01      967             0.0000000000
      2978       973  TIP3      OH2           -16.5251240172        5.4181666500        8.6301057139  WT01      968             0.0000000000
      2979       973  TIP3      H1            -16.2875258092        6.0908855555        7.9919613911  WT01      968             0.0000000000
      2980       973  TIP3      H2            -17.4808753075        5.3799316692        8.5939205178  WT01      968             0.0000000000
      2981       974  TIP3      OH2            -2.6879948025        4.5403259857       13.4945205127  WT01      969             0.0000000000
      2982       974  TIP3      H1             -1.7858267242        4.3067285517       13.7130538247  WT01      969             0.0000000000
      2983       974  TIP3      H2             -3.2014074564        4.2439349218       14.2460466899  WT01      969             0.0000000000
      2984       975  TIP3      OH2             7.2113690321      -15.3521586259       -4.4490262020  WT01      970             0.0000000000
      2985       975  TIP3      H1              7.8729038549      -15.7500294034       -5.0149787917  WT01      970             0.0000000000
      2986       975  TIP3      H2              7.6854578485      -14.6769757559       -3.9636400699  WT01      970             0.0000000000
      2987       976  TIP3      OH2             2.9600242481       -1.8428858797        2.9485882777  WT01      971             0.0000000000
      2988       976  TIP3      H1              3.6316444400       -1.1823955893        3.1186197607  WT01      971             0.0000000000
      2989       976  TIP3      H2              3.2165348070       -2.2368678393        2.1147943225  WT01      971             0.0000000000
      2990       977  TIP3      OH2            -5.4272115493       -3.1182672853       16.3496208756  WT01      972             0.0000000000
      2991       977  TIP3      H1             -5.3262547239       -2.4807601956       15.6427798460  WT01      972             0.0000000000
      2992       977  TIP3      H2             -6.3692149128       -3.2828879829       16.3915911047  WT01      972             0.0000000000
      2993       978  TIP3      OH2            -2.3433901695       -2.5939316014       -6.1667370315  WT01      973             0.0000000000
      2994       978  TIP3      H1             -1.9345365219       -2.4451876446       -5.3141259002  WT01      973             0.0000000000
      2995       978  TIP3      H2             -3.0949489709       -3.1557805348       -5.9777477326  WT01      973             0.0000000000
      2996       979  TIP3      OH2            -4.4733621839        7.4762475101        9.6052448171  WT01      974             0.0000000000
      2997       979  TIP3      H1             -4.3588516562        7.8024224548       10.4978416216  WT01      974             0.0000000000
      2998       979  TIP3      H2             -3.6361434976        7.6525694305        9.1760510814  WT01      974             0.0000000000
      2999       980  TIP3      OH2            10.4704824107       -4.8232779625       -3.1103848590  WT01      975             0.0000000000
      3000       980  TIP3      H1             10.8140703376       -4.8538090621       -4.0032717496  WT01      975             0.0000000000
      3001       980  TIP3      H2              9.5221621433       -4.7538799127       -3.2204048220  WT01      975             0.0000000000
      3002       981  TIP3      OH2           -15.5894736185        0.3631026498      -16.2727787586  WT01      976             0.0000000000
      3003       981  TIP3      H1            -15.5252970174        1.2904599424      -16.0444771451  WT01      976             0.0000000000
      3004       981  TIP3      H2            -16.1144003606       -0.0211427466      -15.5706112560  WT01      976             0.0000000000
      3005       982  TIP3      OH2             0.3989719169       16.8174522446       -7.3773670620  WT01      977             0.0000000000
      3006       982  TIP3      H1              0.7313895119       17.4741035775       -7.9893632880  WT01      977             0.0000000000
      3007       982  TIP3      H2              1.0816559679       16.7435459678       -6.7104996391  WT01      977             0.0000000000
      3008       983  TIP3      OH2             5.4042641281        6.9672981879       15.5794104511  WT01      978             0.0000000000
      3009       983  TIP3      H1              5.7211332221        7.6397915997       16.1823850770  WT01      978             0.0000000000
      3010       983  TIP3      H2              5.5935268731        6.1398474292       16.0218318185  WT01      978             0.0000000000
      3011       984  TIP3      OH2           -11.5413411519        3.8572723886        4.8889744876  WT01      979             0.0000000000
      3012       984  TIP3      H1            -11.7412449271        4.1389085179        5.7816958228  WT01      979             0.0000000000
      3013       984  TIP3      H2            -12.3967824954        3.6954264499        4.4911581846  WT01      979             0.0000000000
      3014       985  TIP3      OH2           -16.1145263035      -16.4952567959       -6.8614677059  WT01      980             0.0000000000
      3015       985  TIP3      H1            -16.9930878341      -16.8077466587       -7.0775962180  WT01      980             0.0000000000
      3016       985  TIP3      H2            -16.1353905141      -15.5603075113       -7.0655910287  WT01      980             0.0000000000
      3017       986  TIP3      OH2            -8.8173994999       11.6789819864        4.0977193561  WT01      981             0.0000000000
      3018       986  TIP3      H1             -8.6372238518       12.5598843480        3.7694213571  WT01      981             0.0000000000
      3019       986  TIP3      H2             -9.2055659721       11.8194576371        4.9613310701  WT01      981             0.0000000000
      3020       987  TIP3      OH2           -16.4429872259       -8.7814040229       14.9622395238  WT01      982             0.0000000000
      3021       987  TIP3      H1            -16.3223843329       -9.3563862576       14.2065397269  WT01      982             0.0000000000
      3022       987  TIP3      H2            -16.1567701811       -9.3052739067       15.7104854453  WT01      982             0.0000000000
      3023       988  TIP3      OH2            11.4886099983       -4.3862706582       -5.7595465603  WT01      983             0.0000000000
      3024       988  TIP3      H1             11.2311123445       -4.1235290761       -6.6432284207  WT01      983             0.0000000000
      3025       988  TIP3      H2             12.1492467450       -5.0657411043       -5.8941229806  WT01      983             0.0000000000
      3026       989  TIP3      OH2            -1.0919099524       10.1311871660      -15.2786946257  WT01      984             0.0000000000
      3027       989  TIP3      H1             -1.8624990491        9.5646864901      -15.3174404536  WT01      984             0.0000000000
      3028       989  TIP3      H2             -0.8698450547       10.1709953376      -14.3484611595  WT01      984             0.0000000000
      3029       990  TIP3      OH2           -19.7400794572      -15.3483836624      -13.2326927715  WT01      985             0.0000000000
      3030       990  TIP3      H1            -19.1701997865      -15.0439076779      -12.5264609775  WT01      985             0.0000000000
      3031       990  TIP3      H2            -20.6146455336      -15.0528491602      -12.9796604671  WT01      985             0.0000000000
      3032       991  TIP3      OH2            -6.0901826030      -10.7141416692       -9.4521219601  WT01      986             0.0000000000
      3033       991  TIP3      H1             -6.4381555247      -11.5120670034       -9.0540493312  WT01      986             0.0000000000
      3034       991  TIP3      H2             -5.3911239362      -10.4359080748       -8.8604000167  WT01      986             0.0000000000
      3035       992  TIP3      OH2             2.8902306857        9.3319038060        0.5222013013  WT01      987             0.0000000000
      3036       992  TIP3      H1              3.3571392560        9.8143949277        1.2044259823  WT01      987             0.0000000000
      3037       992  TIP3      H2              1.9856755438        9.6379566608        0.5881062052  WT01      987             0.0000000000
      3038       993  TIP3      OH2            11.4087875149       -2.2403595485       18.1647349110  WT01      988             0.0000000000
      3039       993  TIP3      H1             12.1957187944       -2.7709458664       18.2890294469  WT01      988             0.0000000000
      3040       993  TIP3      H2             11.7135441796       -1.4663595696       17.6911536413  WT01      988             0.0000000000
      3041       994  TIP3      OH2            18.5567134330       -7.0726887562        5.6742731463  WT01      989             0.0000000000
      3042       994  TIP3      H1             18.4886622519       -6.7127401990        6.5586022049  WT01      989             0.0000000000
      3043       994  TIP3      H2             19.4961826103       -7.1927903998        5.5356907835  WT01      989             0.0000000000
      3044       995  TIP3      OH2             3.2699606258        5.9172081449        1.4749022862  WT01      990             0.0000000000
      3045       995  TIP3      H1              2.7149468446        5.1466479658        1.5950210781  WT01      990             0.0000000000
      3046       995  TIP3      H2              3.3826866104        5.9863463540        0.5268808879  WT01      990             0.0000000000
      3047       996  TIP3      OH2             5.6768132575       13.5016288726      -15.6256043887  WT01      991             0.0000000000
      3048       996  TIP3      H1              5.1724609984       13.7575907381      -14.8533711770  WT01      991             0.0000000000
      3049       996  TIP3      H2              5.1278496814       13.7580973119      -16.3666136617  WT01      991             0.0000000000
      3050       997  TIP3      OH2            12.0292940894      -11.5951866115      -19.0981435377  WT01      992             0.0000000000
      3051       997  TIP3      H1             12.3164186506      -12.5072204533      -19.0535838159  WT01      992             0.0000000000
      3052       997  TIP3      H2             11.9861471848      -11.4026612696      -20.0347886938  WT01      992             0.0000000000
      3053       998  TIP3      OH2             0.7577626677        0.8418470955       18.4035531622  WT01      993             0.0000000000
      3054       998  TIP3      H1              1.1525453801        0.0294936654       18.0865983932  WT01      993             0.0000000000
      3055       998  TIP3      H2              0.9830570433        1.4932553211       17.7393682639  WT01      993             0.0000000000
      3056       999  TIP3      OH2            13.0647316402       15.8767248989       14.8011178162  WT01      994             0.0000000000
      3057       999  TIP3      H1             12.5839722409       15.0601305355       14.9363060430  WT01      994             0.0000000000
      3058       999  TIP3      H2             13.4449457705       16.0758302932       15.6567030358  WT01      994             0.0000000000
      3059      1000  TIP3      OH2           -14.0745256500       18.4935932814       17.8765759674  WT01      995             0.0000000000
      3060      1000  TIP3      H1            -14.1761132788       18.7451392839       16.9586236956  WT01      995             0.0000000000
      3061      1000  TIP3      H2            -13.1752782911       18.1715985958       17.9390693342  WT01      995             0.0000000000
      3062      1001  TIP3      OH2             9.3223891183       16.5098307056       -6.5996449096  WT01      996             0.0000000000
      3063      1001  TIP3      H1             10.2275300119       16.2167832023       -6.4944073943  WT01      996             0.0000000000
      3064      1001  TIP3      H2              9.3411808117       17.0741973469       -7.3725413952  WT01      996             0.0000000000
      3065      1002  TIP3      OH2            -6.3112085478        5.4202753196      -15.9965068133  WT01      997             0.0000000000
      3066      1002  TIP3      H1             -5.9064942938        5.6618515225      -15.1633927023  WT01      997             0.0000000000
      3067      1002  TIP3      H2             -7.0931310804        4.9266236244      -15.7492479048  WT01      997             0.0000000000
      3068      1003  TIP3      OH2            -9.1319017368        2.4751809290       14.1364892868  WT01      998             0.0000000000
      3069      1003  TIP3      H1             -8.2278663390        2.5765407770       13.8387007850  WT01      998             0.0000000000
      3070      1003  TIP3      H2             -9.6624543567        2.7872834223       13.4034560254  WT01      998             0.0000000000
      3071      1004  TIP3      OH2            -5.0102230479       -9.7576445377       -6.5803250834  WT01      999             0.0000000000
      3072      1004  TIP3      H1             -5.9368371060       -9.6940340147       -6.8117811260  WT01      999             0.0000000000
      3073      1004  TIP3      H2             -5.0102446858      -10.0260424463       -5.6615245756  WT01      999             0.0000000000
      3074      1005  TIP3      OH2            -3.5675602137       -4.3513596472        3.4724536878  WT01      1000            0.0000000000
      3075      1005  TIP3      H1             -4.0399829043       -4.4773312553        2.6495443572  WT01      1000            0.0000000000
      3076      1005  TIP3      H2             -2.7084883208       -4.7444969090        3.3186018521  WT01      1000            0.0000000000
      3077      1006  TIP3      OH2             7.7653776899       13.9448002633        4.7666794508  WT01      1001            0.0000000000
      3078      1006  TIP3      H1              8.4536315760       13.3606691588        5.0850020104  WT01      1001            0.0000000000
      3079      1006  TIP3      H2              7.3460130628       13.4574901148        4.0575292976  WT01      1001            0.0000000000
      3080      1007  TIP3      OH2            13.6793310004       -1.8870460854        9.3903156271  WT01      1002            0.0000000000
      3081      1007  TIP3      H1             12.7870055438       -1.7022291822        9.6832828655  WT01      1002            0.0000000000
      3082      1007  TIP3      H2             13.8629711767       -1.2103778969        8.7386805610  WT01      1002            0.0000000000
      3083      1008  TIP3      OH2             2.9326487307        2.4969151470      -10.5563204449  WT01      1003            0.0000000000
      3084      1008  TIP3      H1              3.8558174302        2.6805692577      -10.7302817360  WT01      1003            0.0000000000
      3085      1008  TIP3      H2              2.4820081261        2.7474260547      -11.3627937189  WT01      1003            0.0000000000
      3086      1009  TIP3      OH2            12.9768150604       -3.3597475616        6.2790845407  WT01      1004            0.0000000000
      3087      1009  TIP3      H1             12.5973422706       -2.5440886120        5.9520788974  WT01      1004            0.0000000000
      3088      1009  TIP3      H2             13.7840510760       -3.4674768909        5.7760972469  WT01      1004            0.0000000000
      3089      1010  TIP3      OH2           -11.4176852710      -10.6150936196      -16.4025685250  WT01      1005            0.0000000000
      3090      1010  TIP3      H1            -11.1351249919      -11.5251079972      -16.3116546522  WT01      1005            0.0000000000
      3091      1010  TIP3      H2            -12.1302930527      -10.6476923933      -17.0408155622  WT01      1005            0.0000000000
      3092      1011  TIP3      OH2             3.9890884812       -2.4210247317       -8.6182397022  WT01      1006            0.0000000000
      3093      1011  TIP3      H1              4.9316532082       -2.3728342649       -8.4586113044  WT01      1006            0.0000000000
      3094      1011  TIP3      H2              3.8893681871       -2.1836072510       -9.5401510937  WT01      1006            0.0000000000
      3095      1012  TIP3      OH2           -18.6795161252      -15.4591887501      -19.5561671905  WT01      1007            0.0000000000
      3096      1012  TIP3      H1            -18.5709361521      -15.6106644047      -20.4950480810  WT01      1007            0.0000000000
      3097      1012  TIP3      H2            -18.5585938216      -14.5156404322      -19.4497426661  WT01      1007            0.0000000000
      3098      1013  TIP3      OH2            -7.8714864852       -8.4682873839      -10.1518890173  WT01      1008            0.0000000000
      3099      1013  TIP3      H1             -7.4083630219       -9.1173734948       -9.6223272273  WT01      1008            0.0000000000
      3100      1013  TIP3      H2             -8.4441695669       -8.9852458205      -10.7184751748  WT01      1008            0.0000000000
      3101      1014  TIP3      OH2            -0.7846854706        2.2887463222      -10.5855212742  WT01      1009            0.0000000000
      3102      1014  TIP3      H1             -1.5467138083        2.4916049832      -10.0429413380  WT01      1009            0.0000000000
      3103      1014  TIP3      H2             -0.1135857542        2.0104234437       -9.9623091458  WT01      1009            0.0000000000
      3104      1015  TIP3      OH2             9.3674386240       10.2404381504       -1.3334718094  WT01      1010            0.0000000000
      3105      1015  TIP3      H1             10.1898200192       10.3778102093       -1.8036308988  WT01      1010            0.0000000000
      3106      1015  TIP3      H2              8.7075043597       10.6778788649       -1.8713976399  WT01      1010            0.0000000000
      3107      1016  TIP3      OH2             4.5060639215       -3.9679067789       12.0318092467  WT01      1011            0.0000000000
      3108      1016  TIP3      H1              4.3626183050       -3.8905392805       11.0885863481  WT01      1011            0.0000000000
      3109      1016  TIP3      H2              5.1197693184       -3.2633965305       12.2398063783  WT01      1011            0.0000000000
      3110      1017  TIP3      OH2            -2.3121527280      -14.1337268760       -9.9377202202  WT01      1012            0.0000000000
      3111      1017  TIP3      H1             -2.1879820676      -13.6570999817      -10.7584761289  WT01      1012            0.0000000000
      3112      1017  TIP3      H2             -1.6785633489      -14.8500891220       -9.9779873565  WT01      1012            0.0000000000
      3113      1018  TIP3      OH2             6.9834284097       -4.7790696554       -6.5780106666  WT01      1013            0.0000000000
      3114      1018  TIP3      H1              7.7909801583       -4.4857650638       -6.9999874443  WT01      1013            0.0000000000
      3115      1018  TIP3      H2              6.9860037666       -5.7297514616       -6.6894973563  WT01      1013            0.0000000000
      3116      1019  TIP3      OH2            -3.1471513452      -13.9783238450        1.0677261224  WT01      1014            0.0000000000
      3117      1019  TIP3      H1             -2.5956448753      -13.5330091355        1.7109735353  WT01      1014            0.0000000000
      3118      1019  TIP3      H2             -4.0224600585      -13.6189138902        1.2122631484  WT01      1014            0.0000000000
      3119      1020  TIP3      OH2             9.5556964690        9.1657834955        4.1462666232  WT01      1015            0.0000000000
      3120      1020  TIP3      H1              9.3447508607        9.2510687071        3.2165031080  WT01      1015            0.0000000000
      3121      1020  TIP3      H2              9.5118085296        8.2249548255        4.3169917636  WT01      1015            0.0000000000
      3122      1021  TIP3      OH2            -1.2324090855      -16.7812443556      -17.9250423141  WT01      1016            0.0000000000
      3123      1021  TIP3      H1             -1.0597851784      -16.8171127736      -16.9842201979  WT01      1016            0.0000000000
      3124      1021  TIP3      H2             -1.9575683435      -17.3914244377      -18.0594154103  WT01      1016            0.0000000000
      3125      1022  TIP3      OH2            -0.2185184045       10.7533110046       -3.2310710891  WT01      1017            0.0000000000
      3126      1022  TIP3      H1             -0.4215273374        9.9306210421       -3.6762681350  WT01      1017            0.0000000000
      3127      1022  TIP3      H2             -0.1761033914       10.5202015200       -2.3036592357  WT01      1017            0.0000000000
      3128      1023  TIP3      OH2            -8.5593741593       -3.5394342209       -5.8874031382  WT01      1018            0.0000000000
      3129      1023  TIP3      H1             -8.1570991909       -3.8076177109       -6.7135292040  WT01      1018            0.0000000000
      3130      1023  TIP3      H2             -9.1061636340       -4.2831559943       -5.6341621359  WT01      1018            0.0000000000
      3131      1024  TIP3      OH2            10.4000801165      -13.0459037687       -4.2818055085  WT01      1019            0.0000000000
      3132      1024  TIP3      H1              9.9876045993      -12.3585357164       -3.7587176388  WT01      1019            0.0000000000
      3133      1024  TIP3      H2             10.2271728998      -13.8528725627       -3.7968969904  WT01      1019            0.0000000000
      3134      1025  TIP3      OH2            -6.8014381306       -1.3953841124       19.5830502162  WT01      1020            0.0000000000
      3135      1025  TIP3      H1             -6.7580386434       -2.3499862874       19.6385748327  WT01      1020            0.0000000000
      3136      1025  TIP3      H2             -5.8950812227       -1.1072411132       19.6913210743  WT01      1020            0.0000000000
      3137      1026  TIP3      OH2           -14.9306683027       -2.1140674803       -7.9865945112  WT01      1021            0.0000000000
      3138      1026  TIP3      H1            -15.7648470486       -2.4251121122       -7.6349855410  WT01      1021            0.0000000000
      3139      1026  TIP3      H2            -14.4767910269       -2.9090260742       -8.2663588110  WT01      1021            0.0000000000
      3140      1027  TIP3      OH2            -6.3400272776       -0.2475870575       10.1506813117  WT01      1022            0.0000000000
      3141      1027  TIP3      H1             -5.6440071879        0.0694283558        9.5751041461  WT01      1022            0.0000000000
      3142      1027  TIP3      H2             -6.8477730793        0.5345932164       10.3665980343  WT01      1022            0.0000000000
      3143      1028  TIP3      OH2             2.3284425078        6.2688197719      -15.6207924503  WT01      1023            0.0000000000
      3144      1028  TIP3      H1              2.6858672725        7.1245725334      -15.3837975985  WT01      1023            0.0000000000
      3145      1028  TIP3      H2              2.2198119844        6.3088991698      -16.5709634151  WT01      1023            0.0000000000
      3146      1029  TIP3      OH2            -5.3421773986      -11.1843621586        5.8329322027  WT01      1024            0.0000000000
      3147      1029  TIP3      H1             -4.4704062253      -11.5795268605        5.8425077326  WT01      1024            0.0000000000
      3148      1029  TIP3      H2             -5.4157422013      -10.7448118220        6.6800541139  WT01      1024            0.0000000000
      3149      1030  TIP3      OH2             8.8464147172      -19.3799962537        7.8104088149  WT01      1025            0.0000000000
      3150      1030  TIP3      H1              8.6523420308      -20.2801244902        7.5489958059  WT01      1025            0.0000000000
      3151      1030  TIP3      H2              8.6701786131      -19.3599698386        8.7510317943  WT01      1025            0.0000000000
      3152      1031  TIP3      OH2            -5.0946956856      -16.7903703381       -6.8869414861  WT01      1026            0.0000000000
      3153      1031  TIP3      H1             -5.2846086718      -16.4939356939       -5.9968339811  WT01      1026            0.0000000000
      3154      1031  TIP3      H2             -4.9743344371      -15.9837080280       -7.3879813033  WT01      1026            0.0000000000
      3155      1032  TIP3      OH2           -18.7360082463       -2.2019197459        3.8295510847  WT01      1027            0.0000000000
      3156      1032  TIP3      H1            -19.6205719325       -2.5659809835        3.7943614359  WT01      1027            0.0000000000
      3157      1032  TIP3      H2            -18.6200065342       -1.7709434387        2.9827719893  WT01      1027            0.0000000000
      3158      1033  TIP3      OH2           -10.5806453835       -7.7931271447        1.0966412176  WT01      1028            0.0000000000
      3159      1033  TIP3      H1            -10.6660424903       -6.8652178051        0.8777270731  WT01      1028            0.0000000000
      3160      1033  TIP3      H2            -10.6131505588       -7.8180628300        2.0529640900  WT01      1028            0.0000000000
      3161      1034  TIP3      OH2             2.6764005958      -12.5062864450       17.0934077090  WT01      1029            0.0000000000
      3162      1034  TIP3      H1              2.6922059682      -13.4470935112       17.2690894255  WT01      1029            0.0000000000
      3163      1034  TIP3      H2              3.5859499478      -12.2271985507       17.1985824895  WT01      1029            0.0000000000
      3164      1035  TIP3      OH2            12.3806169516       -8.7246031732       -0.4776389013  WT01      1030            0.0000000000
      3165      1035  TIP3      H1             11.9922466088       -8.8846398444       -1.3377485174  WT01      1030            0.0000000000
      3166      1035  TIP3      H2             12.4837351618       -7.7739747573       -0.4340033596  WT01      1030            0.0000000000
      3167      1036  TIP3      OH2             2.5951327331       10.3227349697        5.1681579770  WT01      1031            0.0000000000
      3168      1036  TIP3      H1              3.5312072733       10.1249633633        5.1384484172  WT01      1031            0.0000000000
      3169      1036  TIP3      H2              2.1678003303        9.4943369024        4.9504989073  WT01      1031            0.0000000000
      3170      1037  TIP3      OH2             6.4024260996      -15.6705232912      -17.8059530041  WT01      1032            0.0000000000
      3171      1037  TIP3      H1              6.4534589022      -16.6246880703      -17.7494106453  WT01      1032            0.0000000000
      3172      1037  TIP3      H2              5.4851481456      -15.4679401861      -17.6221241390  WT01      1032            0.0000000000
      3173      1038  TIP3      OH2            -7.9638698934        2.1942914370       -5.7533479373  WT01      1033            0.0000000000
      3174      1038  TIP3      H1             -8.2117730516        1.7505821589       -6.5644570000  WT01      1033            0.0000000000
      3175      1038  TIP3      H2             -7.8277521041        1.4858598543       -5.1241989478  WT01      1033            0.0000000000
      3176      1039  TIP3      OH2             5.6601043184       14.5017829171      -19.7144229217  WT01      1034            0.0000000000
      3177      1039  TIP3      H1              4.8871821392       14.7297171957      -20.2310166505  WT01      1034            0.0000000000
      3178      1039  TIP3      H2              6.3973473906       14.8358431923      -20.2254103932  WT01      1034            0.0000000000
      3179      1040  TIP3      OH2            18.5120246133      -11.0048486014       -3.1448023308  WT01      1035            0.0000000000
      3180      1040  TIP3      H1             18.6005517744      -10.2763393735       -2.5302544826  WT01      1035            0.0000000000
      3181      1040  TIP3      H2             19.2731007539      -11.5588780696       -2.9714637381  WT01      1035            0.0000000000
      3182      1041  TIP3      OH2             2.9689730522        5.9906207059       -1.4296252799  WT01      1036            0.0000000000
      3183      1041  TIP3      H1              2.5491089648        6.8446769000       -1.5322604423  WT01      1036            0.0000000000
      3184      1041  TIP3      H2              2.3914550030        5.3823171099       -1.8907884279  WT01      1036            0.0000000000
      3185      1042  TIP3      OH2            -0.4558416002       18.5477021171       -3.7668476429  WT01      1037            0.0000000000
      3186      1042  TIP3      H1              0.0641527646       18.6051732156       -4.5684302927  WT01      1037            0.0000000000
      3187      1042  TIP3      H2             -1.0908514094       19.2600756461       -3.8411329612  WT01      1037            0.0000000000
      3188      1043  TIP3      OH2             5.2575955528       -4.4381505787        4.3374279918  WT01      1038            0.0000000000
      3189      1043  TIP3      H1              5.9588216411       -4.7562761815        4.9060314433  WT01      1038            0.0000000000
      3190      1043  TIP3      H2              5.3843696292       -3.4898503933        4.3076470744  WT01      1038            0.0000000000
      3191      1044  TIP3      OH2           -11.4231540740       -4.9689126923       -5.6611724128  WT01      1039            0.0000000000
      3192      1044  TIP3      H1            -11.3104160082       -4.3788788694       -6.4064119900  WT01      1039            0.0000000000
      3193      1044  TIP3      H2            -12.3155843165       -4.8036229421       -5.3570682006  WT01      1039            0.0000000000
      3194      1045  TIP3      OH2           -13.8743552066       -8.4837419052       -4.3804112369  WT01      1040            0.0000000000
      3195      1045  TIP3      H1            -13.6034733475       -8.1311521014       -5.2280758284  WT01      1040            0.0000000000
      3196      1045  TIP3      H2            -13.0582144210       -8.7601283478       -3.9635700639  WT01      1040            0.0000000000
      3197      1046  TIP3      OH2            13.9626815261        0.8496866273       12.0832964833  WT01      1041            0.0000000000
      3198      1046  TIP3      H1             14.9050851625        0.7000408399       12.0077098744  WT01      1041            0.0000000000
      3199      1046  TIP3      H2             13.8704518392        1.8024283330       12.0862525073  WT01      1041            0.0000000000
      3200      1047  TIP3      OH2             7.9014061342       -3.9628524351       -4.0708095654  WT01      1042            0.0000000000
      3201      1047  TIP3      H1              7.5178385963       -3.1130282718       -4.2873889883  WT01      1042            0.0000000000
      3202      1047  TIP3      H2              7.6236061321       -4.5398544079       -4.7822360853  WT01      1042            0.0000000000
      3203      1048  TIP3      OH2           -11.9627577838        1.1284926734        7.4654986008  WT01      1043            0.0000000000
      3204      1048  TIP3      H1            -12.3185167920        1.5235766833        6.6695237493  WT01      1043            0.0000000000
      3205      1048  TIP3      H2            -11.1068586399        0.7894996793        7.2032921620  WT01      1043            0.0000000000
      3206      1049  TIP3      OH2             2.3781208394       -4.7625578319       -9.1802837152  WT01      1044            0.0000000000
      3207      1049  TIP3      H1              2.9549731123       -4.0174614528       -9.0120438508  WT01      1044            0.0000000000
      3208      1049  TIP3      H2              1.9445476742       -4.9243806934       -8.3423938161  WT01      1044            0.0000000000
      3209      1050  TIP3      OH2            15.1566247572       -4.1154277417        9.9784376250  WT01      1045            0.0000000000
      3210      1050  TIP3      H1             14.5447885866       -3.3792989437        9.9767931882  WT01      1045            0.0000000000
      3211      1050  TIP3      H2             14.6289671710       -4.8666556887        9.7073917723  WT01      1045            0.0000000000
      3212      1051  TIP3      OH2             1.4258306916       -3.5673341976       17.1891906228  WT01      1046            0.0000000000
      3213      1051  TIP3      H1              1.1846519771       -3.1810321288       18.0311142240  WT01      1046            0.0000000000
      3214      1051  TIP3      H2              1.2396158603       -2.8812598404       16.5482087010  WT01      1046            0.0000000000
      3215      1052  TIP3      OH2             2.3535440206      -17.7930927576       -9.8746658113  WT01      1047            0.0000000000
      3216      1052  TIP3      H1              2.5686809052      -18.7242940242       -9.8216362634  WT01      1047            0.0000000000
      3217      1052  TIP3      H2              3.1785848852      -17.3692606231      -10.1111096831  WT01      1047            0.0000000000
      3218      1053  TIP3      OH2             2.8733955250       -5.5326305322        3.5394103558  WT01      1048            0.0000000000
      3219      1053  TIP3      H1              3.5982235373       -5.0432030036        3.9284050317  WT01      1048            0.0000000000
      3220      1053  TIP3      H2              2.0871414123       -5.0791446410        3.8433623714  WT01      1048            0.0000000000
      3221      1054  TIP3      OH2            13.0947184442        3.1494539404      -12.3786227275  WT01      1049            0.0000000000
      3222      1054  TIP3      H1             13.3669127761        2.9786786626      -13.2802755771  WT01      1049            0.0000000000
      3223      1054  TIP3      H2             13.7673013111        2.7306949386      -11.8414961160  WT01      1049            0.0000000000
      3224      1055  TIP3      OH2            14.9159302339       -4.8279530046       -5.5559962508  WT01      1050            0.0000000000
      3225      1055  TIP3      H1             15.8706850099       -4.8876256680       -5.5893774129  WT01      1050            0.0000000000
      3226      1055  TIP3      H2             14.6150496172       -5.3953983848       -6.2657204268  WT01      1050            0.0000000000
      3227      1056  TIP3      OH2            -2.6789461011      -12.1962710196        6.1283323727  WT01      1051            0.0000000000
      3228      1056  TIP3      H1             -1.9351977594      -11.6104382284        6.2692939136  WT01      1051            0.0000000000
      3229      1056  TIP3      H2             -2.3517619581      -13.0622998293        6.3715944708  WT01      1051            0.0000000000
      3230      1057  TIP3      OH2             2.5009031095        3.2928644977        6.5263184899  WT01      1052            0.0000000000
      3231      1057  TIP3      H1              2.5855496671        3.0694975486        5.5994021089  WT01      1052            0.0000000000
      3232      1057  TIP3      H2              2.3383530911        2.4557094452        6.9610376184  WT01      1052            0.0000000000
      3233      1058  TIP3      OH2           -14.5038970004      -11.0226968576       -5.1796430317  WT01      1053            0.0000000000
      3234      1058  TIP3      H1            -14.4999292023      -10.8340345161       -6.1180579658  WT01      1053            0.0000000000
      3235      1058  TIP3      H2            -14.4851901187      -10.1617689720       -4.7616896377  WT01      1053            0.0000000000
      3236      1059  TIP3      OH2             0.3393617947        5.9009827874       -7.4442001044  WT01      1054            0.0000000000
      3237      1059  TIP3      H1              0.7403287446        6.0590255238       -8.2988812202  WT01      1054            0.0000000000
      3238      1059  TIP3      H2              0.1162632237        6.7731009843       -7.1188254138  WT01      1054            0.0000000000
      3239      1060  TIP3      OH2           -18.9222224438       15.9745047911      -12.0579997620  WT01      1055            0.0000000000
      3240      1060  TIP3      H1            -18.6438120749       16.7944720361      -11.6501110582  WT01      1055            0.0000000000
      3241      1060  TIP3      H2            -18.8874962033       15.3306487385      -11.3505569849  WT01      1055            0.0000000000
      3242      1061  TIP3      OH2           -19.0311024086        5.7273420728       -5.8436141895  WT01      1056            0.0000000000
      3243      1061  TIP3      H1            -18.7615554576        5.1147757698       -5.1592613735  WT01      1056            0.0000000000
      3244      1061  TIP3      H2            -19.7516738394        5.2845137714       -6.2918459596  WT01      1056            0.0000000000
      3245      1062  TIP3      OH2             8.5716315426       -4.3983243270       -9.1300488529  WT01      1057            0.0000000000
      3246      1062  TIP3      H1              9.1111843162       -5.1889661211       -9.1296376844  WT01      1057            0.0000000000
      3247      1062  TIP3      H2              9.1522861982       -3.7113593367       -8.8027094509  WT01      1057            0.0000000000
      3248      1063  TIP3      OH2             3.0424254624       -6.3755132133       12.4210100843  WT01      1058            0.0000000000
      3249      1063  TIP3      H1              2.3755958059       -6.1861420828       13.0810923482  WT01      1058            0.0000000000
      3250      1063  TIP3      H2              3.5676317296       -5.5766288926       12.3743835882  WT01      1058            0.0000000000
      3251      1064  TIP3      OH2            -2.3093626613      -12.0366110348      -19.2323850132  WT01      1059            0.0000000000
      3252      1064  TIP3      H1             -3.0011875708      -11.4305350979      -19.4974926602  WT01      1059            0.0000000000
      3253      1064  TIP3      H2             -1.8394587591      -12.2336822864      -20.0426843748  WT01      1059            0.0000000000
      3254      1065  TIP3      OH2           -17.4277176140      -17.4891393977       15.9791023847  WT01      1060            0.0000000000
      3255      1065  TIP3      H1            -16.7866702084      -18.0735136340       15.5743842276  WT01      1060            0.0000000000
      3256      1065  TIP3      H2            -17.5515474578      -16.7884559745       15.3388362515  WT01      1060            0.0000000000
      3257      1066  TIP3      OH2             8.3201280245        4.0757735591       -8.2610465297  WT01      1061            0.0000000000
      3258      1066  TIP3      H1              7.6926965757        3.6159544060       -7.7032580980  WT01      1061            0.0000000000
      3259      1066  TIP3      H2              7.7826608787        4.4891464166       -8.9366823480  WT01      1061            0.0000000000
      3260      1067  TIP3      OH2           -13.6644597918       -3.6432933522       16.5441233549  WT01      1062            0.0000000000
      3261      1067  TIP3      H1            -13.2602808319       -3.3260907549       17.3517456006  WT01      1062            0.0000000000
      3262      1067  TIP3      H2            -13.0223370225       -4.2508247696       16.1769507294  WT01      1062            0.0000000000
      3263      1068  TIP3      OH2           -17.4217634931        5.8370876744        2.1122492605  WT01      1063            0.0000000000
      3264      1068  TIP3      H1            -17.2602711667        6.7015843942        1.7343637475  WT01      1063            0.0000000000
      3265      1068  TIP3      H2            -16.5978282340        5.6046034685        2.5404006285  WT01      1063            0.0000000000
      3266      1069  TIP3      OH2            17.3495463253       -4.1144603706      -19.8077047364  WT01      1064            0.0000000000
      3267      1069  TIP3      H1             18.0812098292       -3.5101132734      -19.9328642915  WT01      1064            0.0000000000
      3268      1069  TIP3      H2             17.3214977591       -4.2649225954      -18.8628205065  WT01      1064            0.0000000000
      3269      1070  TIP3      OH2             0.6934189790        8.4668811545       15.8400865871  WT01      1065            0.0000000000
      3270      1070  TIP3      H1              0.4709989185        7.5611327026       16.0554487697  WT01      1065            0.0000000000
      3271      1070  TIP3      H2              1.6084376010        8.4295757434       15.5615528573  WT01      1065            0.0000000000
      3272      1071  TIP3      OH2             7.6910378030       -5.3229065906        4.8755580819  WT01      1066            0.0000000000
      3273      1071  TIP3      H1              8.5041156888       -4.8923169866        4.6114960518  WT01      1066            0.0000000000
      3274      1071  TIP3      H2              7.4524612096       -5.8664138094        4.1246167238  WT01      1066            0.0000000000
      3275      1072  TIP3      OH2            13.6078294451        4.7584090818       -0.2647215039  WT01      1067            0.0000000000
      3276      1072  TIP3      H1             12.6729526805        4.9637294875       -0.2737091150  WT01      1067            0.0000000000
      3277      1072  TIP3      H2             13.7137084188        4.1538446420        0.4698009887  WT01      1067            0.0000000000
      3278      1073  TIP3      OH2             8.9095714868        1.6975985732      -18.5880761051  WT01      1068            0.0000000000
      3279      1073  TIP3      H1              8.2794316496        1.0924800967      -18.1969402898  WT01      1068            0.0000000000
      3280      1073  TIP3      H2              9.2526665208        2.1983353877      -17.8479543237  WT01      1068            0.0000000000
      3281      1074  TIP3      OH2            14.1641002138      -10.8442864058       -6.7017549179  WT01      1069            0.0000000000
      3282      1074  TIP3      H1             14.5853412979      -10.7959021495       -5.8435901762  WT01      1069            0.0000000000
      3283      1074  TIP3      H2             13.6812768869      -11.6706400488       -6.6858457146  WT01      1069            0.0000000000
      3284      1075  TIP3      OH2            -2.3182852765        5.1400776722      -11.4245543868  WT01      1070            0.0000000000
      3285      1075  TIP3      H1             -1.7254987172        5.6377121575      -10.8613529794  WT01      1070            0.0000000000
      3286      1075  TIP3      H2             -3.0111874018        4.8387753654      -10.8369019592  WT01      1070            0.0000000000
      3287      1076  TIP3      OH2           -12.5566639916       14.0690974578       -8.8529733589  WT01      1071            0.0000000000
      3288      1076  TIP3      H1            -12.3290466346       14.4839457047       -9.6850329011  WT01      1071            0.0000000000
      3289      1076  TIP3      H2            -12.8770666123       13.2008703993       -9.0974232446  WT01      1071            0.0000000000
      3290      1077  TIP3      OH2             1.9299829479      -15.6234850885        1.3143031053  WT01      1072            0.0000000000
      3291      1077  TIP3      H1              2.0831870578      -16.2446988386        2.0262397516  WT01      1072            0.0000000000
      3292      1077  TIP3      H2              1.0184627294      -15.7689123982        1.0608990804  WT01      1072            0.0000000000
      3293      1078  TIP3      OH2            -0.5197274233        3.1146157769       -3.8385641996  WT01      1073            0.0000000000
      3294      1078  TIP3      H1             -1.1186291223        2.6998679025       -3.2176513501  WT01      1073            0.0000000000
      3295      1078  TIP3      H2              0.1819450600        2.4748043986       -3.9591002421  WT01      1073            0.0000000000
      3296      1079  TIP3      OH2           -15.2905492465       -7.8194189040      -10.9433282685  WT01      1074            0.0000000000
      3297      1079  TIP3      H1            -16.0493684306       -8.0566257946      -10.4102634057  WT01      1074            0.0000000000
      3298      1079  TIP3      H2            -15.5690325118       -7.0397498211      -11.4237395541  WT01      1074            0.0000000000
      3299      1080  TIP3      OH2            -8.7212868052        3.7985761655        0.6095199982  WT01      1075            0.0000000000
      3300      1080  TIP3      H1             -8.5837993162        4.1487708611        1.4896862760  WT01      1075            0.0000000000
      3301      1080  TIP3      H2             -8.2144727814        4.3767257330        0.0393319293  WT01      1075            0.0000000000
      3302      1081  TIP3      OH2            11.3670382217        7.2404924514       -2.9076030248  WT01      1076            0.0000000000
      3303      1081  TIP3      H1             11.9288785666        7.9702525463       -2.6468014876  WT01      1076            0.0000000000
      3304      1081  TIP3      H2             10.5711753264        7.6567417781       -3.2386174669  WT01      1076            0.0000000000
      3305      1082  TIP3      OH2           -13.0741975673       -2.8042049869        5.6645607112  WT01      1077            0.0000000000
      3306      1082  TIP3      H1            -13.8692055678       -2.8346665608        5.1323331445  WT01      1077            0.0000000000
      3307      1082  TIP3      H2            -13.1130443585       -1.9555687558        6.1056267891  WT01      1077            0.0000000000
      3308      1083  TIP3      OH2            -0.0383158408       -1.7894366000       -7.4372894795  WT01      1078            0.0000000000
      3309      1083  TIP3      H1             -0.8391539035       -2.1817534169       -7.0894709585  WT01      1078            0.0000000000
      3310      1083  TIP3      H2              0.2981025348       -1.2537329422       -6.7189051265  WT01      1078            0.0000000000
      3311      1084  TIP3      OH2            -3.7064429967        0.0610843840       -3.7659144352  WT01      1079            0.0000000000
      3312      1084  TIP3      H1             -4.1064332372       -0.7949117680       -3.9192448177  WT01      1079            0.0000000000
      3313      1084  TIP3      H2             -3.3419482538        0.3112016171       -4.6149237185  WT01      1079            0.0000000000
      3314      1085  TIP3      OH2            13.7214735207       12.2841365144        2.6299647506  WT01      1080            0.0000000000
      3315      1085  TIP3      H1             13.3001719406       12.6619458982        1.8579564222  WT01      1080            0.0000000000
      3316      1085  TIP3      H2             13.0113723406       12.1776773021        3.2629375472  WT01      1080            0.0000000000
      3317      1086  TIP3      OH2            10.1940987301       -8.3391912296      -13.9407925351  WT01      1081            0.0000000000
      3318      1086  TIP3      H1             10.5520320714       -8.0526317143      -14.7810301077  WT01      1081            0.0000000000
      3319      1086  TIP3      H2              9.5492328993       -7.6692807850      -13.7136364928  WT01      1081            0.0000000000
      3320      1087  TIP3      OH2            19.8840642712        1.4538251660       -8.4767016621  WT01      1082            0.0000000000
      3321      1087  TIP3      H1             18.9891495812        1.7388585007       -8.6614054974  WT01      1082            0.0000000000
      3322      1087  TIP3      H2             20.3948618223        2.2631474903       -8.4589520600  WT01      1082            0.0000000000
      3323      1088  TIP3      OH2            -3.4830826508       10.9661172063        8.9208565148  WT01      1083            0.0000000000
      3324      1088  TIP3      H1             -2.6683468883       10.5702773437        9.2302886584  WT01      1083            0.0000000000
      3325      1088  TIP3      H2             -3.7388864986       10.4320518384        8.1688123769  WT01      1083            0.0000000000
      3326      1089  TIP3      OH2            -0.0711619341       10.6012589230      -17.6840033036  WT01      1084            0.0000000000
      3327      1089  TIP3      H1             -0.4137023773       10.2952553160      -16.8442059183  WT01      1084            0.0000000000
      3328      1089  TIP3      H2             -0.7784934288       11.1298759735      -18.0534325681  WT01      1084            0.0000000000
      3329      1090  TIP3      OH2             9.3693391348       10.0554077112       12.6477564737  WT01      1085            0.0000000000
      3330      1090  TIP3      H1              9.8338825942        9.5300364309       11.9962841387  WT01      1085            0.0000000000
      3331      1090  TIP3      H2              9.9588694777       10.0792764305       13.4014912215  WT01      1085            0.0000000000
      3332      1091  TIP3      OH2             5.9332269611        6.2560331304       -2.3010802397  WT01      1086            0.0000000000
      3333      1091  TIP3      H1              6.3424385865        6.0035535137       -3.1287466579  WT01      1086            0.0000000000
      3334      1091  TIP3      H2              6.3347111818        5.6810129616       -1.6496249174  WT01      1086            0.0000000000
      3335      1092  TIP3      OH2             1.3732622146        1.4450669436      -13.0972933908  WT01      1087            0.0000000000
      3336      1092  TIP3      H1              0.6164600580        0.8590670122      -13.0879989127  WT01      1087            0.0000000000
      3337      1092  TIP3      H2              1.0378495669        2.2756015304      -12.7597397404  WT01      1087            0.0000000000
      3338      1093  TIP3      OH2             5.2256731257       17.7879121204       14.8229493183  WT01      1088            0.0000000000
      3339      1093  TIP3      H1              5.3120079336       16.8709288737       14.5623349725  WT01      1088            0.0000000000
      3340      1093  TIP3      H2              5.5923566736       17.8218407466       15.7064785114  WT01      1088            0.0000000000
      3341      1094  TIP3      OH2             7.7696121543      -14.3598988268        3.2939736383  WT01      1089            0.0000000000
      3342      1094  TIP3      H1              7.8514701251      -14.6582083352        4.1998116596  WT01      1089            0.0000000000
      3343      1094  TIP3      H2              8.3664436988      -13.6141181363        3.2320456142  WT01      1089            0.0000000000
      3344      1095  TIP3      OH2            -7.6145673108       -4.5711944875       -8.4017645346  WT01      1090            0.0000000000
      3345      1095  TIP3      H1             -7.2116308969       -5.4155359938       -8.1993751123  WT01      1090            0.0000000000
      3346      1095  TIP3      H2             -8.5396695776       -4.7739238586       -8.5407552150  WT01      1090            0.0000000000
      3347      1096  TIP3      OH2            -4.0349310815        5.4596186042       -6.3333613546  WT01      1091            0.0000000000
      3348      1096  TIP3      H1             -4.6225909472        4.8341262436       -5.9095135044  WT01      1091            0.0000000000
      3349      1096  TIP3      H2             -3.1844621693        5.0205089782       -6.3441861838  WT01      1091            0.0000000000
      3350      1097  TIP3      OH2            -9.8876929702        8.8417841798       -8.6915910494  WT01      1092            0.0000000000
      3351      1097  TIP3      H1             -9.2990494449        8.5227721174       -9.3756684685  WT01      1092            0.0000000000
      3352      1097  TIP3      H2             -9.3359994503        8.9086312179       -7.9122339139  WT01      1092            0.0000000000
      3353      1098  TIP3      OH2            -5.1552352194        3.0886232445        5.8609699421  WT01      1093            0.0000000000
      3354      1098  TIP3      H1             -5.9602870215        3.4426368099        5.4830839772  WT01      1093            0.0000000000
      3355      1098  TIP3      H2             -5.0737159105        3.5284386731        6.7072256966  WT01      1093            0.0000000000
      3356      1099  TIP3      OH2            -0.6299031063      -10.7194908898       -9.2424601957  WT01      1094            0.0000000000
      3357      1099  TIP3      H1              0.2203802133      -10.4951889608       -9.6205325857  WT01      1094            0.0000000000
      3358      1099  TIP3      H2             -1.2077562973      -10.8266036977       -9.9980026148  WT01      1094            0.0000000000
      3359      1100  TIP3      OH2             0.7464854608       -0.1762798453       -5.4254584773  WT01      1095            0.0000000000
      3360      1100  TIP3      H1              1.0249423664        0.4503995052       -4.7576512040  WT01      1095            0.0000000000
      3361      1100  TIP3      H2              1.5616792990       -0.5574016467       -5.7517053007  WT01      1095            0.0000000000
      3362      1101  TIP3      OH2             4.5739438186       -1.3094646929       19.2295322439  WT01      1096            0.0000000000
      3363      1101  TIP3      H1              4.4318760200       -0.4122110242       19.5311684580  WT01      1096            0.0000000000
      3364      1101  TIP3      H2              4.9991156437       -1.2117402141       18.3775283376  WT01      1096            0.0000000000
      3365      1102  TIP3      OH2            -0.6730301481       -6.0514786579        6.1569141020  WT01      1097            0.0000000000
      3366      1102  TIP3      H1             -1.5909425866       -5.7830390821        6.1970234577  WT01      1097            0.0000000000
      3367      1102  TIP3      H2             -0.2961728948       -5.5144377312        5.4599223770  WT01      1097            0.0000000000
      3368      1103  TIP3      OH2             3.3373122402        3.8470980874       15.9158853684  WT01      1098            0.0000000000
      3369      1103  TIP3      H1              2.9293899359        2.9880944473       16.0251737532  WT01      1098            0.0000000000
      3370      1103  TIP3      H2              4.2366829375        3.7261713096       16.2204192323  WT01      1098            0.0000000000
      3371      1104  TIP3      OH2            -5.0469652625        6.0097326361      -13.6088514451  WT01      1099            0.0000000000
      3372      1104  TIP3      H1             -5.5876092800        6.6367518443      -13.1284528920  WT01      1099            0.0000000000
      3373      1104  TIP3      H2             -4.8832449988        5.3046612763      -12.9825113906  WT01      1099            0.0000000000
      3374      1105  TIP3      OH2             5.0662587690        2.0544977798       -3.2512251267  WT01      1100            0.0000000000
      3375      1105  TIP3      H1              5.3400424473        1.6970733202       -2.4065227742  WT01      1100            0.0000000000
      3376      1105  TIP3      H2              5.7714201996        1.8156034446       -3.8528135777  WT01      1100            0.0000000000
      3377      1106  TIP3      OH2            -2.9123028283       -3.2076946451       14.7560580745  WT01      1101            0.0000000000
      3378      1106  TIP3      H1             -3.8484065340       -3.4020131089       14.8027699335  WT01      1101            0.0000000000
      3379      1106  TIP3      H2             -2.8462500177       -2.2847949156       15.0012619214  WT01      1101            0.0000000000
      3380      1107  TIP3      OH2           -12.4841967770        3.1971031929       -3.7430871326  WT01      1102            0.0000000000
      3381      1107  TIP3      H1            -12.7461878460        4.0732006250       -4.0260107624  WT01      1102            0.0000000000
      3382      1107  TIP3      H2            -12.9343287911        3.0699880715       -2.9079495829  WT01      1102            0.0000000000
      3383      1108  TIP3      OH2            -5.4033613202        0.7653261567        4.4565219009  WT01      1103            0.0000000000
      3384      1108  TIP3      H1             -4.5357378874        0.3862897583        4.3158350196  WT01      1103            0.0000000000
      3385      1108  TIP3      H2             -5.2434635276        1.5343207266        5.0036159134  WT01      1103            0.0000000000
      3386      1109  TIP3      OH2           -18.9232622939        6.8008069522       -2.4343962478  WT01      1104            0.0000000000
      3387      1109  TIP3      H1            -18.4078343237        7.4931760590       -2.0206441014  WT01      1104            0.0000000000
      3388      1109  TIP3      H2            -19.3297667880        6.3349643454       -1.7036592410  WT01      1104            0.0000000000
      3389      1110  TIP3      OH2            18.8370269976        8.3448567452       -3.3181608695  WT01      1105            0.0000000000
      3390      1110  TIP3      H1             19.4038538216        7.6170303620       -3.0628024574  WT01      1105            0.0000000000
      3391      1110  TIP3      H2             18.3911508811        8.0364535506       -4.1070295337  WT01      1105            0.0000000000
      3392      1111  TIP3      OH2             4.4402105913       -8.9832774722       -3.8625366477  WT01      1106            0.0000000000
      3393      1111  TIP3      H1              4.6996289541       -8.5550559653       -4.6783554174  WT01      1106            0.0000000000
      3394      1111  TIP3      H2              3.5674295873       -9.3329440206       -4.0420315919  WT01      1106            0.0000000000
      3395      1112  TIP3      OH2            18.7951622978       15.5594803305       -3.1384734494  WT01      1107            0.0000000000
      3396      1112  TIP3      H1             18.4351251561       14.7023993411       -2.9104005547  WT01      1107            0.0000000000
      3397      1112  TIP3      H2             19.1950691650       15.4306436751       -3.9985359035  WT01      1107            0.0000000000
      3398      1113  TIP3      OH2             3.6477169463        2.1316210320        1.2660054264  WT01      1108            0.0000000000
      3399      1113  TIP3      H1              4.4260305660        1.6728957104        1.5822818873  WT01      1108            0.0000000000
      3400      1113  TIP3      H2              3.9888383035        2.8067072240        0.6793823242  WT01      1108            0.0000000000
      3401      1114  TIP3      OH2            -8.3151368958       -4.6189523345       -2.7158200243  WT01      1109            0.0000000000
      3402      1114  TIP3      H1             -7.6633167147       -4.7753827035       -2.0325252107  WT01      1109            0.0000000000
      3403      1114  TIP3      H2             -7.8152179131       -4.6324500251       -3.5319882876  WT01      1109            0.0000000000
      3404      1115  TIP3      OH2            -2.3398749099        1.9307563210        4.8272427547  WT01      1110            0.0000000000
      3405      1115  TIP3      H1             -3.1791572788        2.3478156414        5.0219179701  WT01      1110            0.0000000000
      3406      1115  TIP3      H2             -2.4951481624        1.4458346052        4.0167040711  WT01      1110            0.0000000000
      3407      1116  TIP3      OH2            -2.0624983691        1.4943568743       -1.8999884025  WT01      1111            0.0000000000
      3408      1116  TIP3      H1             -2.6043908582        1.7353952862       -1.1486663508  WT01      1111            0.0000000000
      3409      1116  TIP3      H2             -2.5575673060        0.8042120136       -2.3413936925  WT01      1111            0.0000000000
      3410      1117  TIP3      OH2           -18.1052035790       14.2499464986        1.2675326512  WT01      1112            0.0000000000
      3411      1117  TIP3      H1            -18.6302304607       14.2414555797        2.0678491442  WT01      1112            0.0000000000
      3412      1117  TIP3      H2            -18.6917479632       14.6047748245        0.5994799920  WT01      1112            0.0000000000
      3413      1118  TIP3      OH2             0.4953500953       16.3922895913        0.4418465146  WT01      1113            0.0000000000
      3414      1118  TIP3      H1              1.0715061482       17.1519578463        0.3571107126  WT01      1113            0.0000000000
      3415      1118  TIP3      H2             -0.3640886478       16.7638965647        0.6406054520  WT01      1113            0.0000000000
      3416      1119  TIP3      OH2           -19.5482835574      -13.9413208469        1.0883784490  WT01      1114            0.0000000000
      3417      1119  TIP3      H1            -19.5910347902      -13.1034084830        1.5491463011  WT01      1114            0.0000000000
      3418      1119  TIP3      H2            -18.7483053522      -13.8871616279        0.5655654219  WT01      1114            0.0000000000
      3419      1120  TIP3      OH2            -9.9473066557      -12.2318705680      -19.7598522566  WT01      1115            0.0000000000
      3420      1120  TIP3      H1            -10.4395037752      -12.3007583997      -20.5779159908  WT01      1115            0.0000000000
      3421      1120  TIP3      H2             -9.6739109566      -11.3153799627      -19.7207169382  WT01      1115            0.0000000000
      3422      1121  TIP3      OH2            13.6206647346       -6.5612115980       12.2137863330  WT01      1116            0.0000000000
      3423      1121  TIP3      H1             14.2428789495       -7.2522784614       12.4407397910  WT01      1116            0.0000000000
      3424      1121  TIP3      H2             12.9195822515       -6.6479145143       12.8596948151  WT01      1116            0.0000000000
      3425      1122  TIP3      OH2             1.3025576526       -3.0668717240       -4.5273599828  WT01      1117            0.0000000000
      3426      1122  TIP3      H1              0.4835366164       -2.5802248919       -4.4345633557  WT01      1117            0.0000000000
      3427      1122  TIP3      H2              1.9092447103       -2.4421051769       -4.9246374510  WT01      1117            0.0000000000
      3428      1123  TIP3      OH2            -7.5516517391        6.8106394673       -5.5729532680  WT01      1118            0.0000000000
      3429      1123  TIP3      H1             -8.4369207413        6.8030031313       -5.2089858366  WT01      1118            0.0000000000
      3430      1123  TIP3      H2             -7.1971752173        7.6642207462       -5.3240010499  WT01      1118            0.0000000000
      3431      1124  TIP3      OH2            -4.3883757461        3.8187878016       19.3007807857  WT01      1119            0.0000000000
      3432      1124  TIP3      H1             -4.5888462839        2.8858236508       19.3757558997  WT01      1119            0.0000000000
      3433      1124  TIP3      H2             -4.0252848021        4.0555720600       20.1542033026  WT01      1119            0.0000000000
      3434      1125  TIP3      OH2           -11.1299708718       10.2280100747       -1.4840402795  WT01      1120            0.0000000000
      3435      1125  TIP3      H1            -11.5256089681        9.7541482750       -2.2155847433  WT01      1120            0.0000000000
      3436      1125  TIP3      H2            -10.8013612835        9.5417777596       -0.9032367333  WT01      1120            0.0000000000
      3437      1126  TIP3      OH2           -14.9069069386        9.4028705750        4.3261745057  WT01      1121            0.0000000000
      3438      1126  TIP3      H1            -15.5575252938        9.5910041841        5.0025865931  WT01      1121            0.0000000000
      3439      1126  TIP3      H2            -14.2738787511       10.1173842662        4.3967245575  WT01      1121            0.0000000000
      3440      1127  TIP3      OH2           -17.7990275603       -7.7006878335       11.4497611781  WT01      1122            0.0000000000
      3441      1127  TIP3      H1            -18.3221713159       -7.1446303208       10.8723943411  WT01      1122            0.0000000000
      3442      1127  TIP3      H2            -16.9769909361       -7.8312362587       10.9770617935  WT01      1122            0.0000000000
      3443      1128  TIP3      OH2            -5.1673792435      -19.3400815135       10.2022361905  WT01      1123            0.0000000000
      3444      1128  TIP3      H1             -5.8881954858      -18.8363399863        9.8242147234  WT01      1123            0.0000000000
      3445      1128  TIP3      H2             -4.4203927089      -19.1541526045        9.6333132002  WT01      1123            0.0000000000
      3446      1129  TIP3      OH2             8.2863092865        6.4927965311        3.6901797278  WT01      1124            0.0000000000
      3447      1129  TIP3      H1              7.5583975288        6.2255552557        3.1289681948  WT01      1124            0.0000000000
      3448      1129  TIP3      H2              8.5327078083        5.6957411720        4.1594582529  WT01      1124            0.0000000000
      3449      1130  TIP3      OH2           -13.1399483814        8.7443090627       -3.1652133289  WT01      1125            0.0000000000
      3450      1130  TIP3      H1            -12.9575396326        8.4770444876       -4.0660620988  WT01      1125            0.0000000000
      3451      1130  TIP3      H2            -14.0893755206        8.6599590292       -3.0774352548  WT01      1125            0.0000000000
      3452      1131  TIP3      OH2             4.5300091219       -2.5666313663       -4.0339674334  WT01      1126            0.0000000000
      3453      1131  TIP3      H1              3.5978764246       -2.7694150369       -3.9549786459  WT01      1126            0.0000000000
      3454      1131  TIP3      H2              4.9561824228       -3.1472143391       -3.4034664101  WT01      1126            0.0000000000
      3455      1132  TIP3      OH2            19.2167819819        8.2169345643        1.0077851786  WT01      1127            0.0000000000
      3456      1132  TIP3      H1             19.9972916646        8.6654465716        0.6824032099  WT01      1127            0.0000000000
      3457      1132  TIP3      H2             18.8093965855        8.8458164631        1.6034163624  WT01      1127            0.0000000000
      3458      1133  TIP3      OH2            -7.0562497710        2.0652457954        2.7574090391  WT01      1128            0.0000000000
      3459      1133  TIP3      H1             -7.2470012866        1.4666398070        2.0352480176  WT01      1128            0.0000000000
      3460      1133  TIP3      H2             -6.6334415739        1.5169284899        3.4183274698  WT01      1128            0.0000000000
      3461      1134  TIP3      OH2           -11.0889193778      -18.4310385433       12.5523331173  WT01      1129            0.0000000000
      3462      1134  TIP3      H1            -11.1151238523      -18.8009701446       13.4347705071  WT01      1129            0.0000000000
      3463      1134  TIP3      H2            -10.1925399979      -18.1102753783       12.4531020217  WT01      1129            0.0000000000
      3464      1135  TIP3      OH2             6.3896401462        4.8494768890       -0.0183849464  WT01      1130            0.0000000000
      3465      1135  TIP3      H1              7.0949901396        4.2150487281       -0.1457195705  WT01      1130            0.0000000000
      3466      1135  TIP3      H2              5.5865507753        4.3350383981       -0.0998239572  WT01      1130            0.0000000000
      3467      1136  TIP3      OH2           -12.7218174116      -18.5492646317       10.4922081025  WT01      1131            0.0000000000
      3468      1136  TIP3      H1            -12.0034088041      -18.6600460627        9.8694333774  WT01      1131            0.0000000000
      3469      1136  TIP3      H2            -12.2896028181      -18.4062702603       11.3342146144  WT01      1131            0.0000000000
      3470      1137  TIP3      OH2             2.2500568808      -18.7490325129       -7.0955572977  WT01      1132            0.0000000000
      3471      1137  TIP3      H1              2.1163449665      -18.1298513252       -7.8131697223  WT01      1132            0.0000000000
      3472      1137  TIP3      H2              2.0599180213      -19.6052923745       -7.4788301438  WT01      1132            0.0000000000
      3473      1138  TIP3      OH2            -9.8430830168        5.6911611583       -2.6360508962  WT01      1133            0.0000000000
      3474      1138  TIP3      H1            -10.7368475251        5.5108635353       -2.3446584085  WT01      1133            0.0000000000
      3475      1138  TIP3      H2             -9.3039006533        5.5501882512       -1.8578216052  WT01      1133            0.0000000000
      3476      1139  TIP3      OH2           -19.3679896095       10.0495143767      -17.9525890299  WT01      1134            0.0000000000
      3477      1139  TIP3      H1            -19.9038354609       10.8322440655      -17.8243889175  WT01      1134            0.0000000000
      3478      1139  TIP3      H2            -18.5460106840       10.3783571766      -18.3165187897  WT01      1134            0.0000000000
      3479      1140  TIP3      OH2            -5.4153055463        4.1054573609        2.3186703744  WT01      1135            0.0000000000
      3480      1140  TIP3      H1             -5.7063730651        4.7706638562        2.9423785026  WT01      1135            0.0000000000
      3481      1140  TIP3      H2             -6.0494123605        3.3946002890        2.4125989781  WT01      1135            0.0000000000
      3482      1141  TIP3      OH2             7.0278190171      -16.9021204884       -7.2520469520  WT01      1136            0.0000000000
      3483      1141  TIP3      H1              7.7428739560      -16.3643401074       -6.9118697818  WT01      1136            0.0000000000
      3484      1141  TIP3      H2              6.3288010904      -16.2774705072       -7.4454846681  WT01      1136            0.0000000000
      3485      1142  TIP3      OH2            14.0469886780        2.1500116082       -6.3587518188  WT01      1137            0.0000000000
      3486      1142  TIP3      H1             13.3714510606        2.2899853688       -7.0222938935  WT01      1137            0.0000000000
      3487      1142  TIP3      H2             13.8008236536        2.7314060005       -5.6392970583  WT01      1137            0.0000000000
      3488      1143  TIP3      OH2           -13.1540657682        0.9706750804        3.7700640602  WT01      1138            0.0000000000
      3489      1143  TIP3      H1            -13.1419396403        0.2822610470        3.1051047482  WT01      1138            0.0000000000
      3490      1143  TIP3      H2            -13.7789082964        0.6603297041        4.4254184478  WT01      1138            0.0000000000
      3491      1144  TIP3      OH2            -2.1532379457       -2.2305630234       -1.3599284579  WT01      1139            0.0000000000
      3492      1144  TIP3      H1             -2.9143857996       -2.7368617348       -1.6437371439  WT01      1139            0.0000000000
      3493      1144  TIP3      H2             -2.5080210603       -1.5877156371       -0.7458372671  WT01      1139            0.0000000000
      3494      1145  TIP3      OH2            -3.2939265783       -0.9060624681       -8.3062602032  WT01      1140            0.0000000000
      3495      1145  TIP3      H1             -4.1855337196       -1.0975672496       -8.0154089777  WT01      1140            0.0000000000
      3496      1145  TIP3      H2             -2.7340111865       -1.2804367743       -7.6261348884  WT01      1140            0.0000000000
      3497      1146  TIP3      OH2           -13.0578225554      -11.8289975617       -2.1803051984  WT01      1141            0.0000000000
      3498      1146  TIP3      H1            -13.0556455363      -10.9950801122       -1.7104022733  WT01      1141            0.0000000000
      3499      1146  TIP3      H2            -13.3822808284      -12.4636307564       -1.5414003946  WT01      1141            0.0000000000
      3500      1147  TIP3      OH2            -8.3728547106      -17.5116520440       12.5738301898  WT01      1142            0.0000000000
      3501      1147  TIP3      H1             -7.4937905334      -17.8901460506       12.5589886803  WT01      1142            0.0000000000
      3502      1147  TIP3      H2             -8.5725190391      -17.3324316217       11.6550015838  WT01      1142            0.0000000000
      3503      1148  TIP3      OH2             8.5854346922       -0.3609664102       -6.0037316033  WT01      1143            0.0000000000
      3504      1148  TIP3      H1              7.8179522015       -0.8772480053       -5.7574477179  WT01      1143            0.0000000000
      3505      1148  TIP3      H2              9.3313417795       -0.9140119482       -5.7713632296  WT01      1143            0.0000000000
      3506      1149  TIP3      OH2             9.0411105643       15.8627950738      -10.0346493002  WT01      1144            0.0000000000
      3507      1149  TIP3      H1              9.0486684857       16.6467296468       -9.4854487228  WT01      1144            0.0000000000
      3508      1149  TIP3      H2              9.9417994290       15.5401518043      -10.0047712049  WT01      1144            0.0000000000
      3509      1150  TIP3      OH2           -15.5545576317       -1.4335309830        8.3119590578  WT01      1145            0.0000000000
      3510      1150  TIP3      H1            -16.1429176487       -2.1446599666        8.0582665860  WT01      1145            0.0000000000
      3511      1150  TIP3      H2            -15.8963797906       -1.1273709850        9.1519920800  WT01      1145            0.0000000000
      3512      1151  TIP3      OH2             1.4691737988      -10.3156044542      -10.9706737400  WT01      1146            0.0000000000
      3513      1151  TIP3      H1              2.1479782836       -9.7178715151      -10.6573502395  WT01      1146            0.0000000000
      3514      1151  TIP3      H2              1.3197438505      -10.0539712077      -11.8792168297  WT01      1146            0.0000000000
      3515      1152  TIP3      OH2             4.0356784166      -18.9279030062        5.7781536760  WT01      1147            0.0000000000
      3516      1152  TIP3      H1              4.3456264513      -18.2840832854        5.1412390867  WT01      1147            0.0000000000
      3517      1152  TIP3      H2              4.8037820809      -19.4665772669        5.9680973858  WT01      1147            0.0000000000
      3518      1153  TIP3      OH2           -13.8260366671       -4.6495876781      -14.1340138014  WT01      1148            0.0000000000
      3519      1153  TIP3      H1            -14.3990247910       -4.8975104514      -13.4084445632  WT01      1148            0.0000000000
      3520      1153  TIP3      H2            -13.5035207145       -3.7796312624      -13.8986606497  WT01      1148            0.0000000000
      3521      1154  TIP3      OH2             4.1022142340       -7.2548905135       -8.8097065833  WT01      1149            0.0000000000
      3522      1154  TIP3      H1              3.8772212094       -6.3769531029       -9.1176608866  WT01      1149            0.0000000000
      3523      1154  TIP3      H2              5.0150214489       -7.3745508207       -9.0718062023  WT01      1149            0.0000000000
      3524      1155  TIP3      OH2            -5.2650487054        5.0028099385        8.3116188810  WT01      1150            0.0000000000
      3525      1155  TIP3      H1             -6.0274863328        5.3541326174        7.8517351452  WT01      1150            0.0000000000
      3526      1155  TIP3      H2             -4.7886694426        5.7766168030        8.6124802201  WT01      1150            0.0000000000
      3527      1156  TIP3      OH2            -2.0770496367        8.1027242691       -9.4471057456  WT01      1151            0.0000000000
      3528      1156  TIP3      H1             -1.1438997829        8.3005814092       -9.5265772088  WT01      1151            0.0000000000
      3529      1156  TIP3      H2             -2.2902095469        8.3122754509       -8.5377746916  WT01      1151            0.0000000000
      3530      1157  TIP3      OH2           -15.0777640000        4.2768195603       10.6638688695  WT01      1152            0.0000000000
      3531      1157  TIP3      H1            -14.2556133384        4.7666439512       10.6831604953  WT01      1152            0.0000000000
      3532      1157  TIP3      H2            -15.6342651572        4.7657848676       10.0576913367  WT01      1152            0.0000000000
      3533      1158  TIP3      OH2            -8.7999105609       11.5753621249       -0.9041754361  WT01      1153            0.0000000000
      3534      1158  TIP3      H1             -9.6958146136       11.8351488270       -0.6894695704  WT01      1153            0.0000000000
      3535      1158  TIP3      H2             -8.8252108395       11.3776162145       -1.8403849542  WT01      1153            0.0000000000
      3536      1159  TIP3      OH2             9.1432630123       -6.3193810950        7.6011082809  WT01      1154            0.0000000000
      3537      1159  TIP3      H1              9.8470994750       -5.9792509352        7.0486976372  WT01      1154            0.0000000000
      3538      1159  TIP3      H2              9.5931668667       -6.8179310907        8.2832125505  WT01      1154            0.0000000000
      3539      1160  TIP3      OH2            14.9949543299        6.7435635898       -5.0229914351  WT01      1155            0.0000000000
      3540      1160  TIP3      H1             15.1895499753        7.1011749493       -4.1566898356  WT01      1155            0.0000000000
      3541      1160  TIP3      H2             14.1200757669        6.3652044865       -4.9354488735  WT01      1155            0.0000000000
      3542      1161  TIP3      OH2            -6.6237423719      -12.3043485745        2.1013153361  WT01      1156            0.0000000000
      3543      1161  TIP3      H1             -7.3938485266      -12.1018581812        2.6325082974  WT01      1156            0.0000000000
      3544      1161  TIP3      H2             -6.5876518990      -11.6009948446        1.4530693802  WT01      1156            0.0000000000
      3545      1162  TIP3      OH2            -1.4194666056       -1.2111900052        6.3025375171  WT01      1157            0.0000000000
      3546      1162  TIP3      H1             -1.1543554177       -0.2929306133        6.2501203603  WT01      1157            0.0000000000
      3547      1162  TIP3      H2             -0.6663440769       -1.6979040256        5.9676528652  WT01      1157            0.0000000000
      3548      1163  TIP3      OH2            -2.7532085561        2.8593370604       -8.8600947078  WT01      1158            0.0000000000
      3549      1163  TIP3      H1             -2.4605329062        3.3410246282       -8.0864346648  WT01      1158            0.0000000000
      3550      1163  TIP3      H2             -3.6531990710        2.6039518878       -8.6575427444  WT01      1158            0.0000000000
      3551      1164  TIP3      OH2            13.4183651206       -5.8455146584       -3.5111131748  WT01      1159            0.0000000000
      3552      1164  TIP3      H1             13.8492597688       -5.3050262563       -4.1732565886  WT01      1159            0.0000000000
      3553      1164  TIP3      H2             13.4286545166       -6.7292082090       -3.8788245400  WT01      1159            0.0000000000
      3554      1165  TIP3      OH2            16.2781970725       -8.0746898014       17.1264026697  WT01      1160            0.0000000000
      3555      1165  TIP3      H1             15.4559268633       -8.4380397407       16.7976469309  WT01      1160            0.0000000000
      3556      1165  TIP3      H2             16.9360353815       -8.3557354645       16.4904043163  WT01      1160            0.0000000000
      3557      1166  TIP3      OH2           -13.8065575607       19.9032618162      -17.5021592545  WT01      1161            0.0000000000
      3558      1166  TIP3      H1            -14.6645510192       20.0820420371      -17.1172999700  WT01      1161            0.0000000000
      3559      1166  TIP3      H2            -13.4268880473       20.7686192961      -17.6546036825  WT01      1161            0.0000000000
      3560      1167  TIP3      OH2             5.2546617889        3.6342897787        3.7744031842  WT01      1162            0.0000000000
      3561      1167  TIP3      H1              5.3239706973        4.4443144186        3.2691426880  WT01      1162            0.0000000000
      3562      1167  TIP3      H2              5.5945834169        3.8614724430        4.6398932967  WT01      1162            0.0000000000
      3563      1168  TIP3      OH2             4.9517525427        1.1365994934        6.7746419140  WT01      1163            0.0000000000
      3564      1168  TIP3      H1              4.1285594688        0.7099182651        7.0123983093  WT01      1163            0.0000000000
      3565      1168  TIP3      H2              5.5853845487        0.8078589201        7.4123502545  WT01      1163            0.0000000000
      3566      1169  TIP3      OH2             1.5822813639        2.1348758085      -18.9291768980  WT01      1164            0.0000000000
      3567      1169  TIP3      H1              1.1840072436        2.0457611640      -19.7950106674  WT01      1164            0.0000000000
      3568      1169  TIP3      H2              2.4405694901        2.5232749245      -19.0986449782  WT01      1164            0.0000000000
      3569      1170  TIP3      OH2            17.2374518816       -6.5333958865        8.4215178701  WT01      1165            0.0000000000
      3570      1170  TIP3      H1             17.4080827344       -6.8507140360        9.3083245656  WT01      1165            0.0000000000
      3571      1170  TIP3      H2             16.2829866544       -6.4965105748        8.3593293271  WT01      1165            0.0000000000
      3572      1171  TIP3      OH2            16.4900470041        7.1064817041       19.0640528754  WT01      1166            0.0000000000
      3573      1171  TIP3      H1             16.3337155569        7.6167813443       18.2694545072  WT01      1166            0.0000000000
      3574      1171  TIP3      H2             17.3984251798        6.8146790284       18.9870327520  WT01      1166            0.0000000000
      3575      1172  TIP3      OH2           -11.5330898087       -3.1728408107       18.3793590069  WT01      1167            0.0000000000
      3576      1172  TIP3      H1            -11.1112453604       -2.4923631113       17.8547361203  WT01      1167            0.0000000000
      3577      1172  TIP3      H2            -10.9885340193       -3.2435508893       19.1633812567  WT01      1167            0.0000000000
      3578      1173  TIP3      OH2            16.7646902550       -2.0452821537        9.1851312955  WT01      1168            0.0000000000
      3579      1173  TIP3      H1             16.1852438547       -2.7196871805        9.5396049055  WT01      1168            0.0000000000
      3580      1173  TIP3      H2             17.4305924721       -2.5320634815        8.6994874063  WT01      1168            0.0000000000
      3581      1174  TIP3      OH2            -4.1755844292      -19.8366308530        5.5130903103  WT01      1169            0.0000000000
      3582      1174  TIP3      H1             -3.3055156463      -19.5888470441        5.2003359207  WT01      1169            0.0000000000
      3583      1174  TIP3      H2             -4.1813441373      -19.5796703455        6.4351369113  WT01      1169            0.0000000000
      3584      1175  TIP3      OH2           -12.6082187556       -8.0851403308      -10.7203133500  WT01      1170            0.0000000000
      3585      1175  TIP3      H1            -12.1141185570       -7.5087426698      -11.3032906576  WT01      1170            0.0000000000
      3586      1175  TIP3      H2            -13.5198933926       -7.8160697890      -10.8329286723  WT01      1170            0.0000000000
      3587      1176  TIP3      OH2            -3.1640195306       -4.8898405195        6.1916899061  WT01      1171            0.0000000000
      3588      1176  TIP3      H1             -3.5842049740       -4.2829730114        6.8011058822  WT01      1171            0.0000000000
      3589      1176  TIP3      H2             -3.4297160339       -4.5821199999        5.3251189275  WT01      1171            0.0000000000
      3590      1177  TIP3      OH2            -8.7906353923       -6.5819984768        8.5388345020  WT01      1172            0.0000000000
      3591      1177  TIP3      H1             -8.7742598178       -5.7273493616        8.1080926517  WT01      1172            0.0000000000
      3592      1177  TIP3      H2             -8.6588828102       -6.3858122323        9.4664033812  WT01      1172            0.0000000000
      3593      1178  TIP3      OH2            17.5419653580      -14.7913845150       10.2108168123  WT01      1173            0.0000000000
      3594      1178  TIP3      H1             18.2880261288      -14.5206814052       10.7459289160  WT01      1173            0.0000000000
      3595      1178  TIP3      H2             16.9980481794      -15.3110121167       10.8027400079  WT01      1173            0.0000000000
      3596      1179  TIP3      OH2             9.6289396785       15.5037287309        6.2966888189  WT01      1174            0.0000000000
      3597      1179  TIP3      H1              9.0316443632       15.2099044108        6.9845386471  WT01      1174            0.0000000000
      3598      1179  TIP3      H2              9.2423485955       15.1731583224        5.4858236324  WT01      1174            0.0000000000
      3599      1180  TIP3      OH2            12.7052780123        5.2026197892       17.4504768910  WT01      1175            0.0000000000
      3600      1180  TIP3      H1             12.1577274541        5.1291015007       16.6688022410  WT01      1175            0.0000000000
      3601      1180  TIP3      H2             12.8421871144        6.1436322322       17.5599451094  WT01      1175            0.0000000000
      3602      1181  TIP3      OH2            17.6158138702        8.0466650269       11.6628691814  WT01      1176            0.0000000000
      3603      1181  TIP3      H1             17.8937428750        7.1617927825       11.4262505211  WT01      1176            0.0000000000
      3604      1181  TIP3      H2             18.1730627184        8.2830083968       12.4043861022  WT01      1176            0.0000000000
      3605      1182  TIP3      OH2            -3.4434409317       -0.3009253002      -17.1225679484  WT01      1177            0.0000000000
      3606      1182  TIP3      H1             -2.6535636280       -0.0259439093      -16.6570457783  WT01      1177            0.0000000000
      3607      1182  TIP3      H2             -3.9529090997       -0.7796995392      -16.4687719367  WT01      1177            0.0000000000
      3608      1183  TIP3      OH2            -8.2537917126       12.7383410652       16.7387000161  WT01      1178            0.0000000000
      3609      1183  TIP3      H1             -8.8310291940       13.4277697080       17.0669024652  WT01      1178            0.0000000000
      3610      1183  TIP3      H2             -8.8094648821       12.2147246342       16.1613916297  WT01      1178            0.0000000000
      3611      1184  TIP3      OH2            -8.1657832562       -1.2851073293       14.9640476878  WT01      1179            0.0000000000
      3612      1184  TIP3      H1             -7.4226854020       -1.1218724533       14.3831933469  WT01      1179            0.0000000000
      3613      1184  TIP3      H2             -8.9317307293       -1.0230602536       14.4532761051  WT01      1179            0.0000000000
      3614      1185  TIP3      OH2            -1.8858881416       -3.0741099161      -19.3515522901  WT01      1180            0.0000000000
      3615      1185  TIP3      H1             -1.0865869401       -2.7247964747      -19.7456709524  WT01      1180            0.0000000000
      3616      1185  TIP3      H2             -2.5291169361       -2.3722798713      -19.4511671343  WT01      1180            0.0000000000
      3617      1186  TIP3      OH2            14.0298566979       -0.3550640577        1.1017817232  WT01      1181            0.0000000000
      3618      1186  TIP3      H1             14.0347922307        0.5937996608        1.2277384426  WT01      1181            0.0000000000
      3619      1186  TIP3      H2             14.0830080698       -0.7149633545        1.9871512725  WT01      1181            0.0000000000
      3620      1187  TIP3      OH2             2.7702769624       18.6045741683        2.5589061714  WT01      1182            0.0000000000
      3621      1187  TIP3      H1              2.7350980933       18.1114729247        3.3785679442  WT01      1182            0.0000000000
      3622      1187  TIP3      H2              3.6096678945       19.0635282034        2.5907788525  WT01      1182            0.0000000000
      3623      1188  TIP3      OH2            16.3277989928        0.6870570884      -14.6976157939  WT01      1183            0.0000000000
      3624      1188  TIP3      H1             16.3558151384       -0.0308034064      -15.3301687297  WT01      1183            0.0000000000
      3625      1188  TIP3      H2             16.5602782979        1.4640756970      -15.2059732131  WT01      1183            0.0000000000
      3626      1189  TIP3      OH2           -10.9224102970       -8.1435147281      -15.4382970497  WT01      1184            0.0000000000
      3627      1189  TIP3      H1            -11.1323837889       -9.0079484302      -15.7917051967  WT01      1184            0.0000000000
      3628      1189  TIP3      H2            -10.0244886486       -8.2270817602      -15.1173841711  WT01      1184            0.0000000000
      3629      1190  TIP3      OH2            -9.5994778223       -9.5209258104        7.8746004149  WT01      1185            0.0000000000
      3630      1190  TIP3      H1             -9.4388541629       -9.3046902356        6.9560831166  WT01      1185            0.0000000000
      3631      1190  TIP3      H2             -9.2890160631       -8.7559825733        8.3590662558  WT01      1185            0.0000000000
      3632      1191  TIP3      OH2            12.0820246432       13.9101447252       16.2669873968  WT01      1186            0.0000000000
      3633      1191  TIP3      H1             12.3285384215       13.8272281241       17.1881755455  WT01      1186            0.0000000000
      3634      1191  TIP3      H2             11.8628108222       13.0186495980       15.9960380475  WT01      1186            0.0000000000
      3635      1192  TIP3      OH2             6.8942182433       11.0315470878      -14.5184511864  WT01      1187            0.0000000000
      3636      1192  TIP3      H1              6.2350530415       11.5458072150      -14.9845730259  WT01      1187            0.0000000000
      3637      1192  TIP3      H2              6.8553253854       11.3518337984      -13.6172655343  WT01      1187            0.0000000000
      3638      1193  TIP3      OH2            -7.7023167098      -10.4928722996       -1.9049426753  WT01      1188            0.0000000000
      3639      1193  TIP3      H1             -6.8409075209      -10.8894638908       -1.7748614313  WT01      1188            0.0000000000
      3640      1193  TIP3      H2             -8.1363774673      -10.5780167377       -1.0560766703  WT01      1188            0.0000000000
      3641      1194  TIP3      OH2           -16.1551352103       -6.5730605507      -14.5018932429  WT01      1189            0.0000000000
      3642      1194  TIP3      H1            -16.9473139463       -6.9272349681      -14.9059293096  WT01      1189            0.0000000000
      3643      1194  TIP3      H2            -16.1434199689       -5.6523494651      -14.7633997649  WT01      1189            0.0000000000
      3644      1195  TIP3      OH2            -8.0233558880       -8.3906042853        5.9307977086  WT01      1190            0.0000000000
      3645      1195  TIP3      H1             -7.6885224785       -8.1651395396        6.7987170870  WT01      1190            0.0000000000
      3646      1195  TIP3      H2             -7.2438085929       -8.4360958278        5.3772018765  WT01      1190            0.0000000000
      3647      1196  TIP3      OH2            -3.3498486786        0.1752643643       10.7701892957  WT01      1191            0.0000000000
      3648      1196  TIP3      H1             -3.7946035132        0.6613722957       10.0758377801  WT01      1191            0.0000000000
      3649      1196  TIP3      H2             -2.7912190142       -0.4485452433       10.3064800305  WT01      1191            0.0000000000
      3650      1197  TIP3      OH2           -15.6076905200      -14.7810442530       18.3344040953  WT01      1192            0.0000000000
      3651      1197  TIP3      H1            -15.2252735426      -14.7071962565       17.4600268656  WT01      1192            0.0000000000
      3652      1197  TIP3      H2            -16.5404770811      -14.6106995895       18.2035463940  WT01      1192            0.0000000000
      3653      1198  TIP3      OH2            -7.2707134345       10.1238857632      -18.2298147595  WT01      1193            0.0000000000
      3654      1198  TIP3      H1             -6.9208120754        9.3376896186      -18.6489763896  WT01      1193            0.0000000000
      3655      1198  TIP3      H2             -7.5466941551       10.6811921927      -18.9574657724  WT01      1193            0.0000000000
      3656      1199  TIP3      OH2             0.2743375928       -5.6487290721        8.7332966986  WT01      1194            0.0000000000
      3657      1199  TIP3      H1              1.1290009609       -6.0779932388        8.7722147344  WT01      1194            0.0000000000
      3658      1199  TIP3      H2              0.0345155400       -5.6750576789        7.8070008504  WT01      1194            0.0000000000
      3659      1200  TIP3      OH2            14.5692425071        7.3413766021      -15.1764521984  WT01      1195            0.0000000000
      3660      1200  TIP3      H1             15.2892806388        7.0891414510      -15.7545130330  WT01      1195            0.0000000000
      3661      1200  TIP3      H2             13.8026485485        7.3751205863      -15.7486644467  WT01      1195            0.0000000000
      3662      1201  TIP3      OH2            -4.2547854039       -3.6183299465       -2.6191613033  WT01      1196            0.0000000000
      3663      1201  TIP3      H1             -5.1429259904       -3.2613955519       -2.6131656660  WT01      1196            0.0000000000
      3664      1201  TIP3      H2             -4.1350907874       -3.9491239739       -3.5093749413  WT01      1196            0.0000000000
      3665      1202  TIP3      OH2           -15.8012939568      -10.2187872396       17.1029119873  WT01      1197            0.0000000000
      3666      1202  TIP3      H1            -16.2253094972      -10.1250457979       17.9559390529  WT01      1197            0.0000000000
      3667      1202  TIP3      H2            -14.8642395945      -10.2011072098       17.2974585101  WT01      1197            0.0000000000
      3668      1203  TIP3      OH2           -10.9359372519       -4.1513883649       11.2325532703  WT01      1198            0.0000000000
      3669      1203  TIP3      H1            -10.9978746101       -3.2401038228       11.5188329551  WT01      1198            0.0000000000
      3670      1203  TIP3      H2            -10.4553177093       -4.1110589108       10.4057460367  WT01      1198            0.0000000000
      3671      1204  TIP3      OH2             1.0442190268        2.4649763459       11.3123055093  WT01      1199            0.0000000000
      3672      1204  TIP3      H1              0.5777102863        3.0211916260       11.9361852800  WT01      1199            0.0000000000
      3673      1204  TIP3      H2              1.8982744921        2.3140150423       11.7173138526  WT01      1199            0.0000000000
      3674      1205  TIP3      OH2            14.1683432751      -16.4142420147        4.2815699767  WT01      1200            0.0000000000
      3675      1205  TIP3      H1             13.2179878200      -16.4848849427        4.3713803145  WT01      1200            0.0000000000
      3676      1205  TIP3      H2             14.5160478528      -16.8531321878        5.0579131700  WT01      1200            0.0000000000
      3677      1206  TIP3      OH2            -2.4080201583      -14.4496648842       17.9524531345  WT01      1201            0.0000000000
      3678      1206  TIP3      H1             -3.1508866490      -14.6601113844       18.5182211600  WT01      1201            0.0000000000
      3679      1206  TIP3      H2             -2.7981739974      -14.0067698034       17.1988910998  WT01      1201            0.0000000000
      3680      1207  TIP3      OH2            10.9976380013       -9.4364953530      -17.8678983228  WT01      1202            0.0000000000
      3681      1207  TIP3      H1             10.5786638190       -9.5952756161      -17.0220370613  WT01      1202            0.0000000000
      3682      1207  TIP3      H2             11.3886708879      -10.2777571031      -18.1037028194  WT01      1202            0.0000000000
      3683      1208  TIP3      OH2             1.4381341597       -5.9883632369       14.5788948584  WT01      1203            0.0000000000
      3684      1208  TIP3      H1              0.6021618666       -5.5458315188       14.4321031196  WT01      1203            0.0000000000
      3685      1208  TIP3      H2              1.2212270841       -6.7296666927       15.1442728895  WT01      1203            0.0000000000
      3686      1209  TIP3      OH2            -6.3444698325       -5.3045205382        5.5872642802  WT01      1204            0.0000000000
      3687      1209  TIP3      H1             -7.0113800532       -5.4871310196        4.9253609786  WT01      1204            0.0000000000
      3688      1209  TIP3      H2             -5.8430912953       -6.1172215360        5.6533586180  WT01      1204            0.0000000000
      3689      1210  TIP3      OH2            -3.3159512601       -4.5672917907       -8.3528338685  WT01      1205            0.0000000000
      3690      1210  TIP3      H1             -3.9990326279       -4.0027890169       -7.9909384772  WT01      1205            0.0000000000
      3691      1210  TIP3      H2             -3.2585895374       -5.2988454227       -7.7382033068  WT01      1205            0.0000000000
      3692      1211  TIP3      OH2           -14.9095452615      -12.3148641887       19.5531284236  WT01      1206            0.0000000000
      3693      1211  TIP3      H1            -15.0011402823      -13.2675575035       19.5383767772  WT01      1206            0.0000000000
      3694      1211  TIP3      H2            -14.0683124978      -12.1480389125       19.1280065874  WT01      1206            0.0000000000
      3695      1212  TIP3      OH2           -10.6720462505       -4.3284107276        6.2743599911  WT01      1207            0.0000000000
      3696      1212  TIP3      H1            -11.2904644017       -3.6616235558        5.9757202938  WT01      1207            0.0000000000
      3697      1212  TIP3      H2             -9.8145285945       -3.9088535002        6.2045960057  WT01      1207            0.0000000000
      3698      1213  TIP3      OH2             8.2350069758       -8.5990283977        5.9855502381  WT01      1208            0.0000000000
      3699      1213  TIP3      H1              8.5031014703       -7.8984542332        6.5801534614  WT01      1208            0.0000000000
      3700      1213  TIP3      H2              8.9314251082       -9.2520674867        6.0546410781  WT01      1208            0.0000000000
      3701      1214  TIP3      OH2            15.5846082898        8.1945334239        4.3165242552  WT01      1209            0.0000000000
      3702      1214  TIP3      H1             16.4771466461        8.1343598337        4.6570917708  WT01      1209            0.0000000000
      3703      1214  TIP3      H2             15.5938376118        8.9694930012        3.7547553666  WT01      1209            0.0000000000
      3704      1215  TIP3      OH2            -5.2561846967      -14.3222106840        3.4982654957  WT01      1210            0.0000000000
      3705      1215  TIP3      H1             -5.5670662726      -15.1732185569        3.1894450671  WT01      1210            0.0000000000
      3706      1215  TIP3      H2             -5.8641242070      -13.6906771510        3.1138090487  WT01      1210            0.0000000000
      3707      1216  TIP3      OH2           -12.3469338158        6.1801398935      -13.7593098027  WT01      1211            0.0000000000
      3708      1216  TIP3      H1            -11.5944047556        6.2735314255      -13.1751780999  WT01      1211            0.0000000000
      3709      1216  TIP3      H2            -12.0660802418        6.5862638939      -14.5793197889  WT01      1211            0.0000000000
      3710      1217  TIP3      OH2           -18.7028063331      -17.5993705578      -18.1199766772  WT01      1212            0.0000000000
      3711      1217  TIP3      H1            -19.5495491136      -18.0199200951      -18.2696314848  WT01      1212            0.0000000000
      3712      1217  TIP3      H2            -18.6480147728      -16.9231678272      -18.7952392654  WT01      1212            0.0000000000
      3713      1218  TIP3      OH2            -7.7129582457        3.5617582825        4.9623317583  WT01      1213            0.0000000000
      3714      1218  TIP3      H1             -7.8391737185        4.2533567049        4.3127218080  WT01      1213            0.0000000000
      3715      1218  TIP3      H2             -8.0014704206        2.7627038184        4.5213051157  WT01      1213            0.0000000000
      3716      1219  TIP3      OH2             8.5365940018        3.4307817179       13.4310596832  WT01      1214            0.0000000000
      3717      1219  TIP3      H1              9.3891366877        3.2496988614       13.0353176222  WT01      1214            0.0000000000
      3718      1219  TIP3      H2              8.5285667404        4.3791876918       13.5602629446  WT01      1214            0.0000000000
      3719      1220  TIP3      OH2             6.3404384427        6.2763463880       19.4428679463  WT01      1215            0.0000000000
      3720      1220  TIP3      H1              6.7717550676        5.4259463639       19.3590969538  WT01      1215            0.0000000000
      3721      1220  TIP3      H2              6.1936162194        6.3793835314       20.3831117407  WT01      1215            0.0000000000
      3722      1221  TIP3      OH2             8.6334454092        7.0899538726       14.7452589367  WT01      1216            0.0000000000
      3723      1221  TIP3      H1              8.0430777645        7.8156786161       14.5427214046  WT01      1216            0.0000000000
      3724      1221  TIP3      H2              8.9849300544        6.8223622077       13.8960916646  WT01      1216            0.0000000000
      3725      1222  TIP3      OH2           -10.6133117566        8.5214679480       11.6121634472  WT01      1217            0.0000000000
      3726      1222  TIP3      H1            -10.0490620195        7.8175197910       11.9320244128  WT01      1217            0.0000000000
      3727      1222  TIP3      H2            -10.1879282448        8.8242264904       10.8099054189  WT01      1217            0.0000000000
      3728      1223  TIP3      OH2             7.8432688069       12.9646558210       10.8958736242  WT01      1218            0.0000000000
      3729      1223  TIP3      H1              7.9808936468       12.7344559136       11.8147311851  WT01      1218            0.0000000000
      3730      1223  TIP3      H2              6.8977899509       13.0930806198       10.8196593546  WT01      1218            0.0000000000
      3731      1224  TIP3      OH2           -10.7085318185      -17.0068424045        6.4072017039  WT01      1219            0.0000000000
      3732      1224  TIP3      H1            -11.3685362097      -16.3143225852        6.4394866016  WT01      1219            0.0000000000
      3733      1224  TIP3      H2            -10.1863391127      -16.8046847145        5.6308777654  WT01      1219            0.0000000000
      3734      1225  TIP3      OH2            15.6149609746        8.4096576387       -9.9916480183  WT01      1220            0.0000000000
      3735      1225  TIP3      H1             15.3369021862        7.9507952756       -9.1989561154  WT01      1220            0.0000000000
      3736      1225  TIP3      H2             15.5049183606        7.7667386562      -10.6922032382  WT01      1220            0.0000000000
      3737      1226  TIP3      OH2           -10.2085345530       -1.3430906483        9.8623133174  WT01      1221            0.0000000000
      3738      1226  TIP3      H1            -11.1575445828       -1.4331076032        9.7756604337  WT01      1221            0.0000000000
      3739      1226  TIP3      H2             -9.9519327085       -0.7877468426        9.1261200263  WT01      1221            0.0000000000
      3740      1227  TIP3      OH2           -12.4431475571       -4.9588633560        3.3322778380  WT01      1222            0.0000000000
      3741      1227  TIP3      H1            -12.7660611350       -4.2093979154        3.8325379559  WT01      1222            0.0000000000
      3742      1227  TIP3      H2            -11.5504532693       -4.7164651823        3.0861643581  WT01      1222            0.0000000000
      3743      1228  TIP3      OH2             1.8112813107      -18.1151533350        3.4003389787  WT01      1223            0.0000000000
      3744      1228  TIP3      H1              1.3067593856      -18.8198876910        3.8065888102  WT01      1223            0.0000000000
      3745      1228  TIP3      H2              2.6885323103      -18.4815168795        3.2888031188  WT01      1223            0.0000000000
      3746      1229  TIP3      OH2            -4.0624198149       -1.8731888101       18.7344939216  WT01      1224            0.0000000000
      3747      1229  TIP3      H1             -3.8980224725       -1.1805094845       18.0946496619  WT01      1224            0.0000000000
      3748      1229  TIP3      H2             -4.0248553160       -2.6833490138       18.2261031626  WT01      1224            0.0000000000
      3749      1230  TIP3      OH2            14.1167678412      -16.6905547279        7.1784915482  WT01      1225            0.0000000000
      3750      1230  TIP3      H1             14.8880007134      -16.3313840507        7.6171578137  WT01      1225            0.0000000000
      3751      1230  TIP3      H2             13.3755310400      -16.3509665913        7.6799690782  WT01      1225            0.0000000000
      3752      1231  TIP3      OH2           -12.1781953770        4.4984949971        7.4641033901  WT01      1226            0.0000000000
      3753      1231  TIP3      H1            -12.3822277690        4.0153232252        8.2648203394  WT01      1226            0.0000000000
      3754      1231  TIP3      H2            -12.0912754293        5.4083591214        7.7483990270  WT01      1226            0.0000000000
      3755      1232  TIP3      OH2           -16.0007905829        2.3674093230       -8.2129739964  WT01      1227            0.0000000000
      3756      1232  TIP3      H1            -16.2924303021        1.4761367960       -8.4048368846  WT01      1227            0.0000000000
      3757      1232  TIP3      H2            -15.3794666602        2.5722544978       -8.9117063117  WT01      1227            0.0000000000
      3758      1233  TIP3      OH2             2.4807494528       11.5042690136       19.6159787739  WT01      1228            0.0000000000
      3759      1233  TIP3      H1              2.9526752388       10.6715110340       19.6103209484  WT01      1228            0.0000000000
      3760      1233  TIP3      H2              2.1607544747       11.6048662835       18.7194771206  WT01      1228            0.0000000000
      3761      1234  TIP3      OH2            -4.1709742448        7.8362084725       12.2920916263  WT01      1229            0.0000000000
      3762      1234  TIP3      H1             -4.4215575653        8.7541165205       12.3964210366  WT01      1229            0.0000000000
      3763      1234  TIP3      H2             -3.7253152250        7.6146780433       13.1097370983  WT01      1229            0.0000000000
      3764      1235  TIP3      OH2           -13.5944957448       -8.5063401432        7.1016496389  WT01      1230            0.0000000000
      3765      1235  TIP3      H1            -12.7243502512       -8.1075251701        7.1066744026  WT01      1230            0.0000000000
      3766      1235  TIP3      H2            -14.1928338541       -7.7749407310        6.9490776297  WT01      1230            0.0000000000
      3767      1236  TIP3      OH2            -1.1700911871       -4.8514290532       13.6776457756  WT01      1231            0.0000000000
      3768      1236  TIP3      H1             -1.7829444733       -4.3673232170       14.2310752652  WT01      1231            0.0000000000
      3769      1236  TIP3      H2             -0.7726357885       -4.1837506809       13.1186586485  WT01      1231            0.0000000000
      3770      1237  TIP3      OH2            -4.9567374174       17.8868199216        3.8108859170  WT01      1232            0.0000000000
      3771      1237  TIP3      H1             -4.5842671921       17.0078264895        3.8806590396  WT01      1232            0.0000000000
      3772      1237  TIP3      H2             -4.7640634945       18.2967393270        4.6541383416  WT01      1232            0.0000000000
      3773      1238  TIP3      OH2            -5.5881890367       -2.8559127584       13.5234583311  WT01      1233            0.0000000000
      3774      1238  TIP3      H1             -5.2683856137       -3.2749781160       12.7244953734  WT01      1233            0.0000000000
      3775      1238  TIP3      H2             -5.4590056694       -1.9197015225       13.3716295118  WT01      1233            0.0000000000
      3776      1239  TIP3      OH2            -8.9175359142        8.8720342224        3.5596014485  WT01      1234            0.0000000000
      3777      1239  TIP3      H1             -9.2103265807        9.7803248937        3.4853485494  WT01      1234            0.0000000000
      3778      1239  TIP3      H2             -7.9633500938        8.9220425038        3.5025015099  WT01      1234            0.0000000000
      3779      1240  TIP3      OH2             4.7525156163        4.5685331763       10.8112143964  WT01      1235            0.0000000000
      3780      1240  TIP3      H1              4.2508637553        4.9507547836       10.0911561597  WT01      1235            0.0000000000
      3781      1240  TIP3      H2              5.0530562647        5.3212701686       11.3204237348  WT01      1235            0.0000000000
      3782      1241  TIP3      OH2             2.4982703427       -7.4926387907        9.8511329571  WT01      1236            0.0000000000
      3783      1241  TIP3      H1              2.7606997215       -7.2079520436       10.7265277756  WT01      1236            0.0000000000
      3784      1241  TIP3      H2              2.0250921115       -8.3118233713        9.9969780652  WT01      1236            0.0000000000
      3785      1242  TIP3      OH2           -15.6324896895       12.1001775706      -16.5684068561  WT01      1237            0.0000000000
      3786      1242  TIP3      H1            -15.7811660637       12.9515410784      -16.1569371433  WT01      1237            0.0000000000
      3787      1242  TIP3      H2            -14.7995670057       12.1987416138      -17.0296624719  WT01      1237            0.0000000000
      3788      1243  TIP3      OH2             0.1185570696       -7.8615371203       15.8800458822  WT01      1238            0.0000000000
      3789      1243  TIP3      H1             -0.7990723929       -7.8911525859       16.1508057476  WT01      1238            0.0000000000
      3790      1243  TIP3      H2              0.5658424903       -8.4558321315       16.4825249300  WT01      1238            0.0000000000
      3791      1244  TIP3      OH2             5.4969245763        3.8992679015        6.3743050914  WT01      1239            0.0000000000
      3792      1244  TIP3      H1              5.3229634072        2.9664574503        6.5001382536  WT01      1239            0.0000000000
      3793      1244  TIP3      H2              4.7091040326        4.3361083025        6.6979423358  WT01      1239            0.0000000000
      3794      1245  TIP3      OH2             4.8712808302       11.2025423788        1.7991199129  WT01      1240            0.0000000000
      3795      1245  TIP3      H1              4.0275555369       11.6467762387        1.7153600284  WT01      1240            0.0000000000
      3796      1245  TIP3      H2              5.4986432423       11.9073324205        1.9601143600  WT01      1240            0.0000000000
      3797      1246  TIP3      OH2             9.0783621033       -0.5786404040       11.0907734225  WT01      1241            0.0000000000
      3798      1246  TIP3      H1              9.0632179395        0.3686020027       10.9539001665  WT01      1241            0.0000000000
      3799      1246  TIP3      H2              9.9615927149       -0.7606529139       11.4117203713  WT01      1241            0.0000000000
      3800      1247  TIP3      OH2           -15.5849821914       -5.3160605407        8.8566640149  WT01      1242            0.0000000000
      3801      1247  TIP3      H1            -15.4100982057       -6.2084734962        9.1554055745  WT01      1242            0.0000000000
      3802      1247  TIP3      H2            -14.8193200840       -4.8147231590        9.1371175370  WT01      1242            0.0000000000
      3803      1248  TIP3      OH2           -14.6284550576      -19.8549177575       15.3482966828  WT01      1243            0.0000000000
      3804      1248  TIP3      H1            -15.0326569743      -19.2907799062       14.6890538549  WT01      1243            0.0000000000
      3805      1248  TIP3      H2            -14.0271988802      -19.2791758286       15.8207837741  WT01      1243            0.0000000000
      3806      1249  TIP3      OH2             7.5484287165       -9.8380309437      -19.6696325263  WT01      1244            0.0000000000
      3807      1249  TIP3      H1              6.6880229278      -10.0604520487      -20.0252482484  WT01      1244            0.0000000000
      3808      1249  TIP3      H2              8.0533527156      -10.6482997995      -19.7385378786  WT01      1244            0.0000000000
      3809      1250  TIP3      OH2            -4.2450107936       -8.7852246484       14.1654920652  WT01      1245            0.0000000000
      3810      1250  TIP3      H1             -3.5120365041       -8.1731952540       14.2318284979  WT01      1245            0.0000000000
      3811      1250  TIP3      H2             -4.7045190873       -8.5237570132       13.3675455665  WT01      1245            0.0000000000
      3812      1251  TIP3      OH2            11.7246627966       -0.9279207128       11.8718356687  WT01      1246            0.0000000000
      3813      1251  TIP3      H1             12.5128517608       -0.3977428219       11.7539315905  WT01      1246            0.0000000000
      3814      1251  TIP3      H2             12.0419797484       -1.8309499419       11.8807785173  WT01      1246            0.0000000000
      3815      1252  TIP3      OH2           -14.5204881264      -14.4607917654       15.8802854490  WT01      1247            0.0000000000
      3816      1252  TIP3      H1            -14.8013367406      -14.4300852355       14.9657292856  WT01      1247            0.0000000000
      3817      1252  TIP3      H2            -13.6221615843      -14.1305550959       15.8666848283  WT01      1247            0.0000000000
      3818      1253  TIP3      OH2             8.8168746104        3.6238551665       -5.0201255232  WT01      1248            0.0000000000
      3819      1253  TIP3      H1              8.2827189638        2.8811988847       -5.3018544771  WT01      1248            0.0000000000
      3820      1253  TIP3      H2              9.6162948046        3.2269713596       -4.6742318866  WT01      1248            0.0000000000
      3821      1254  TIP3      OH2           -11.5824851121       11.3543540116       11.0994617759  WT01      1249            0.0000000000
      3822      1254  TIP3      H1            -10.6720397419       11.5586226049       10.8859310270  WT01      1249            0.0000000000
      3823      1254  TIP3      H2            -11.9531316048       11.0256322144       10.2804410384  WT01      1249            0.0000000000
      3824      1255  TIP3      OH2           -15.3711710084        5.7200491709        3.9989682482  WT01      1250            0.0000000000
      3825      1255  TIP3      H1            -15.2360987178        4.8424330259        3.6415088946  WT01      1250            0.0000000000
      3826      1255  TIP3      H2            -14.6186945026        5.8638686614        4.5728383322  WT01      1250            0.0000000000
      3827      1256  TIP3      OH2            11.9011263569        5.0941739764      -19.7059176969  WT01      1251            0.0000000000
      3828      1256  TIP3      H1             11.1228789261        5.5284910255      -20.0551045356  WT01      1251            0.0000000000
      3829      1256  TIP3      H2             12.5318782608        5.1169250530      -20.4255469315  WT01      1251            0.0000000000
      3830      1257  TIP3      OH2            -6.6946443730        3.7860857795       12.4571472310  WT01      1252            0.0000000000
      3831      1257  TIP3      H1             -6.5311874439        4.4255084665       13.1504381300  WT01      1252            0.0000000000
      3832      1257  TIP3      H2             -5.9187486672        3.8340357195       11.8986506168  WT01      1252            0.0000000000
      3833      1258  TIP3      OH2             6.0226854137        0.1750104993      -13.8670023641  WT01      1253            0.0000000000
      3834      1258  TIP3      H1              5.0856552951        0.0593929062      -14.0246061076  WT01      1253            0.0000000000
      3835      1258  TIP3      H2              6.2899897076        0.8483219952      -14.4926475150  WT01      1253            0.0000000000
      3836      1259  TIP3      OH2            -9.3646000654       -3.5120684798      -19.6318178351  WT01      1254            0.0000000000
      3837      1259  TIP3      H1             -9.6590711818       -3.9181789549      -18.8165921887  WT01      1254            0.0000000000
      3838      1259  TIP3      H2             -8.4149548802       -3.6320839250      -19.6303596652  WT01      1254            0.0000000000
      3839      1260  TIP3      OH2           -10.8844117599        9.3219904889       14.9995948604  WT01      1255            0.0000000000
      3840      1260  TIP3      H1            -10.9850898847        8.7805287854       15.7824837094  WT01      1255            0.0000000000
      3841      1260  TIP3      H2            -10.5374940298        8.7242232715       14.3373605716  WT01      1255            0.0000000000
      3842      1261  TIP3      OH2           -14.1505631283       -8.0794580535      -19.2102969122  WT01      1256            0.0000000000
      3843      1261  TIP3      H1            -14.0719404173       -7.6084713214      -20.0398882444  WT01      1256            0.0000000000
      3844      1261  TIP3      H2            -14.9395650261       -7.7204255798      -18.8043369399  WT01      1256            0.0000000000
      3845      1262  TIP3      OH2             4.1499251484       -2.4700240703       14.5177348054  WT01      1257            0.0000000000
      3846      1262  TIP3      H1              5.1045396059       -2.4400051255       14.5813108346  WT01      1257            0.0000000000
      3847      1262  TIP3      H2              3.9281908043       -3.3890097360       14.6678382294  WT01      1257            0.0000000000
      3848      1263  TIP3      OH2            11.7147320717       15.3720212376       -9.6006411791  WT01      1258            0.0000000000
      3849      1263  TIP3      H1             11.8293171572       14.7351040845       -8.8953479002  WT01      1258            0.0000000000
      3850      1263  TIP3      H2             12.1760523373       14.9892878151      -10.3469189765  WT01      1258            0.0000000000
      3851      1264  TIP3      OH2             7.4610770620        3.9097033470      -19.8582852156  WT01      1259            0.0000000000
      3852      1264  TIP3      H1              7.1413987878        3.2694941234      -20.4940286874  WT01      1259            0.0000000000
      3853      1264  TIP3      H2              7.9090413252        3.3855319731      -19.1943543452  WT01      1259            0.0000000000
      3854      1265  TIP3      OH2            -2.3091999486      -19.5077918599       -5.5760705088  WT01      1260            0.0000000000
      3855      1265  TIP3      H1             -1.3558323999      -19.4501866577       -5.6393458502  WT01      1260            0.0000000000
      3856      1265  TIP3      H2             -2.5224902903      -20.3665572042       -5.9411199913  WT01      1260            0.0000000000
      3857      1266  TIP3      OH2           -13.9315460418      -10.8441352664       14.5781040441  WT01      1261            0.0000000000
      3858      1266  TIP3      H1            -13.3656558606      -10.0731399165       14.5385277356  WT01      1261            0.0000000000
      3859      1266  TIP3      H2            -13.6706980558      -11.2922347762       15.3827138680  WT01      1261            0.0000000000
      3860      1267  TIP3      OH2            12.5720824779       -3.5320738630       12.5223849246  WT01      1262            0.0000000000
      3861      1267  TIP3      H1             12.0069291667       -3.9436280348       13.1761866603  WT01      1262            0.0000000000
      3862      1267  TIP3      H2             13.3868852147       -4.0329830471       12.5600452550  WT01      1262            0.0000000000
      3863      1268  TIP3      OH2             9.4684064403        6.4073541857       12.2837999873  WT01      1263            0.0000000000
      3864      1268  TIP3      H1             10.3296003490        6.2969877196       11.8808159854  WT01      1263            0.0000000000
      3865      1268  TIP3      H2              8.8488273115        6.2719803463       11.5668429189  WT01      1263            0.0000000000
      3866      1269  TIP3      OH2             9.4250984921      -18.7715269157        5.0030606076  WT01      1264            0.0000000000
      3867      1269  TIP3      H1             10.3720706390      -18.8952806833        4.9385581357  WT01      1264            0.0000000000
      3868      1269  TIP3      H2              9.1686616641      -19.2789441974        5.7731253234  WT01      1264            0.0000000000
      3869      1270  TIP3      OH2            -2.9829937700       13.8900077215        9.2379111827  WT01      1265            0.0000000000
      3870      1270  TIP3      H1             -3.1001667345       12.9824282989        8.9571944228  WT01      1265            0.0000000000
      3871      1270  TIP3      H2             -2.5397426823       14.3133016415        8.5026679974  WT01      1265            0.0000000000
      3872      1271  TIP3      OH2            -1.2664658948       -8.1614320124        7.7511418969  WT01      1266            0.0000000000
      3873      1271  TIP3      H1             -0.6311561343       -7.9406205656        8.4322113679  WT01      1266            0.0000000000
      3874      1271  TIP3      H2             -1.1734450508       -7.4648576814        7.1012471862  WT01      1266            0.0000000000
      3875      1272  TIP3      OH2            -6.7186185147        8.8247940962       17.3454643521  WT01      1267            0.0000000000
      3876      1272  TIP3      H1             -6.4125999885        7.9914272802       17.7033529139  WT01      1267            0.0000000000
      3877      1272  TIP3      H2             -6.0927768571        9.4708444618       17.6728371607  WT01      1267            0.0000000000
      3878      1273  TIP3      OH2            -2.6376080581       -4.5381108866        9.3566553949  WT01      1268            0.0000000000
      3879      1273  TIP3      H1             -1.7137108285       -4.7455855981        9.4966552675  WT01      1268            0.0000000000
      3880      1273  TIP3      H2             -2.6467024265       -3.6001645749        9.1658523028  WT01      1268            0.0000000000
      3881      1274  TIP3      OH2           -17.0514222659        8.3127838369       -1.2218058501  WT01      1269            0.0000000000
      3882      1274  TIP3      H1            -16.2205275425        8.0467535353       -0.8280119341  WT01      1269            0.0000000000
      3883      1274  TIP3      H2            -17.5044882974        8.7901022950       -0.5267302629  WT01      1269            0.0000000000
      3884      1275  TIP3      OH2             1.4234867973        1.0124274860       15.4629883715  WT01      1270            0.0000000000
      3885      1275  TIP3      H1              2.0137806310        0.3780161912       15.8695683882  WT01      1270            0.0000000000
      3886      1275  TIP3      H2              1.1525949725        0.5975876370       14.6439906120  WT01      1270            0.0000000000
      3887      1276  TIP3      OH2             6.4457778854       -1.1463903736        7.8071753569  WT01      1271            0.0000000000
      3888      1276  TIP3      H1              7.1492592187       -1.7949496794        7.8339457053  WT01      1271            0.0000000000
      3889      1276  TIP3      H2              6.8947735020       -0.3103460827        7.6820166937  WT01      1271            0.0000000000
      3890      1277  TIP3      OH2             4.2594938016       -9.2206892972       16.2629457041  WT01      1272            0.0000000000
      3891      1277  TIP3      H1              3.4600043833       -8.7692962526       15.9922192733  WT01      1272            0.0000000000
      3892      1277  TIP3      H2              4.9183093096       -8.5286195320       16.3198085005  WT01      1272            0.0000000000
      3893      1278  TIP3      OH2             2.7662303979       -2.9912377675        6.8089648597  WT01      1273            0.0000000000
      3894      1278  TIP3      H1              2.8317137019       -3.9240759355        7.0133094223  WT01      1273            0.0000000000
      3895      1278  TIP3      H2              2.3003114889       -2.9607336802        5.9733687360  WT01      1273            0.0000000000
      3896      1279  TIP3      OH2             6.2167583362        1.5695228757       19.1278222064  WT01      1274            0.0000000000
      3897      1279  TIP3      H1              6.9606960917        1.0860378825       19.4870306255  WT01      1274            0.0000000000
      3898      1279  TIP3      H2              6.1770168782        1.3014376545       18.2097902126  WT01      1274            0.0000000000
      3899      1280  TIP3      OH2            -6.6273931435       11.9849544983        7.4253627430  WT01      1275            0.0000000000
      3900      1280  TIP3      H1             -6.1951256860       12.8342914068        7.5148248686  WT01      1275            0.0000000000
      3901      1280  TIP3      H2             -6.2500994360       11.6060958084        6.6314185620  WT01      1275            0.0000000000
      3902      1281  TIP3      OH2            -2.0062013112        4.9882242080       10.7875497671  WT01      1276            0.0000000000
      3903      1281  TIP3      H1             -2.5529585574        4.6880927925       11.5136416747  WT01      1276            0.0000000000
      3904      1281  TIP3      H2             -1.5725544709        5.7732055027       11.1221937509  WT01      1276            0.0000000000
      3905      1282  TIP3      OH2             1.2367671052       18.8649658244       10.6382274854  WT01      1277            0.0000000000
      3906      1282  TIP3      H1              0.9462554874       18.0013017398       10.9313471876  WT01      1277            0.0000000000
      3907      1282  TIP3      H2              1.6040514312       19.2734433984       11.4221153004  WT01      1277            0.0000000000
      3908      1283  TIP3      OH2            13.3376086558        3.8234343998       11.9225578385  WT01      1278            0.0000000000
      3909      1283  TIP3      H1             14.0154437125        4.4956557582       11.9924856031  WT01      1278            0.0000000000
      3910      1283  TIP3      H2             12.6966236007        4.1913254643       11.3142601032  WT01      1278            0.0000000000
      3911      1284  TIP3      OH2            -8.6684926678       -6.7306959241       11.3947744753  WT01      1279            0.0000000000
      3912      1284  TIP3      H1             -8.2273067578       -7.5662062710       11.2414471651  WT01      1279            0.0000000000
      3913      1284  TIP3      H2             -8.0629232542       -6.2375592558       11.9482487047  WT01      1279            0.0000000000
      3914      1285  TIP3      OH2             7.5631235070        9.8471841630       10.2195417038  WT01      1280            0.0000000000
      3915      1285  TIP3      H1              7.9162647863       10.0438178307       11.0872157489  WT01      1280            0.0000000000
      3916      1285  TIP3      H2              8.0979786157       10.3667501807        9.6193642492  WT01      1280            0.0000000000
      3917      1286  TIP3      OH2           -15.4326871921       -8.8532596502        3.5524906869  WT01      1281            0.0000000000
      3918      1286  TIP3      H1            -14.5784705940       -8.9432422697        3.9749228624  WT01      1281            0.0000000000
      3919      1286  TIP3      H2            -15.6040610600       -7.9115316681        3.5558397271  WT01      1281            0.0000000000
      3920      1287  TIP3      OH2            -2.4336217139      -12.0197284053       -1.4498093171  WT01      1282            0.0000000000
      3921      1287  TIP3      H1             -1.6332066113      -11.9781057803       -0.9265168256  WT01      1282            0.0000000000
      3922      1287  TIP3      H2             -2.1261846990      -12.0769252219       -2.3544876120  WT01      1282            0.0000000000
      3923      1288  TIP3      OH2            -2.5275236976       -4.6943405470      -12.4524520259  WT01      1283            0.0000000000
      3924      1288  TIP3      H1             -1.9151826758       -4.5318726203      -11.7349044965  WT01      1283            0.0000000000
      3925      1288  TIP3      H2             -3.3833071562       -4.4554351721      -12.0963752015  WT01      1283            0.0000000000
      3926      1289  TIP3      OH2           -19.8406138536       13.8968002028       -5.5813614501  WT01      1284            0.0000000000
      3927      1289  TIP3      H1            -19.8458588789       13.0166153028       -5.9574981840  WT01      1284            0.0000000000
      3928      1289  TIP3      H2            -19.0163430835       13.9459819028       -5.0972223493  WT01      1284            0.0000000000
      3929      1290  TIP3      OH2            -1.6277357665       12.1863473220       13.8743437443  WT01      1285            0.0000000000
      3930      1290  TIP3      H1             -2.5421381105       12.2261413869       13.5941356132  WT01      1285            0.0000000000
      3931      1290  TIP3      H2             -1.3963121666       11.2599615373       13.8073787805  WT01      1285            0.0000000000
      3932      1291  TIP3      OH2            11.0109278188       15.0976951329      -17.1343978640  WT01      1286            0.0000000000
      3933      1291  TIP3      H1             10.2011271567       15.5791460790      -17.3036895800  WT01      1286            0.0000000000
      3934      1291  TIP3      H2             11.5523597617       15.2595945315      -17.9069726804  WT01      1286            0.0000000000
      3935      1292  TIP3      OH2            -5.9110044957       12.8853466842        0.9249016502  WT01      1287            0.0000000000
      3936      1292  TIP3      H1             -5.5822389370       12.5264023043        1.7491006253  WT01      1287            0.0000000000
      3937      1292  TIP3      H2             -5.2118901578       13.4631628275        0.6189613650  WT01      1287            0.0000000000
      3938      1293  TIP3      OH2            13.9375694261       12.5888800035      -14.4693352659  WT01      1288            0.0000000000
      3939      1293  TIP3      H1             13.0297470532       12.7226081765      -14.7417451153  WT01      1288            0.0000000000
      3940      1293  TIP3      H2             13.9662954314       11.6809699518      -14.1674976182  WT01      1288            0.0000000000
      3941      1294  TIP3      OH2            -4.6356696842       10.4047912320       18.0351241473  WT01      1289            0.0000000000
      3942      1294  TIP3      H1             -4.8623235342       10.8170788756       18.8687180186  WT01      1289            0.0000000000
      3943      1294  TIP3      H2             -3.7530179438       10.7213842636       17.8429612774  WT01      1289            0.0000000000
      3944      1295  TIP3      OH2            -4.2955179722        0.9326964399        8.3442436173  WT01      1290            0.0000000000
      3945      1295  TIP3      H1             -3.4682737344        1.0152367558        7.8698114532  WT01      1290            0.0000000000
      3946      1295  TIP3      H2             -4.6818098728        0.1216490091        8.0137705569  WT01      1290            0.0000000000
      3947      1296  TIP3      OH2            -1.0984537283       14.0223783635       -0.4078085378  WT01      1291            0.0000000000
      3948      1296  TIP3      H1             -0.3418129065       14.1057381925       -0.9881339782  WT01      1291            0.0000000000
      3949      1296  TIP3      H2             -1.1863943854       14.8851548842       -0.0026975317  WT01      1291            0.0000000000
      3950      1297  TIP3      OH2            -5.2429868094      -16.0016105517       -4.0271220852  WT01      1292            0.0000000000
      3951      1297  TIP3      H1             -4.3548094442      -15.6467775149       -4.0654143172  WT01      1292            0.0000000000
      3952      1297  TIP3      H2             -5.6406207759      -15.5719611059       -3.2698107928  WT01      1292            0.0000000000
      3953      1298  TIP3      OH2             1.0926718750       13.8529800151      -19.6937447477  WT01      1293            0.0000000000
      3954      1298  TIP3      H1              1.7340444974       14.4855368936      -20.0173877080  WT01      1293            0.0000000000
      3955      1298  TIP3      H2              1.5630805483       13.0194441619      -19.6808811344  WT01      1293            0.0000000000
      3956      1299  TIP3      OH2             0.0664821468      -19.4745147096      -16.1857049395  WT01      1294            0.0000000000
      3957      1299  TIP3      H1              1.0221252739      -19.5250034820      -16.1649948332  WT01      1294            0.0000000000
      3958      1299  TIP3      H2             -0.1350056852      -18.6008914815      -15.8504186142  WT01      1294            0.0000000000
      3959      1300  TIP3      OH2            14.8986488356       -1.9667413658       -3.6916155141  WT01      1295            0.0000000000
      3960      1300  TIP3      H1             15.6266149396       -1.3708907760       -3.5148126943  WT01      1295            0.0000000000
      3961      1300  TIP3      H2             14.4620237902       -1.5918679496       -4.4565078612  WT01      1295            0.0000000000
      3962      1301  TIP3      OH2             6.5514564659       16.6755910580       -6.5172859941  WT01      1296            0.0000000000
      3963      1301  TIP3      H1              7.5027345855       16.5711645852       -6.5372073914  WT01      1296            0.0000000000
      3964      1301  TIP3      H2              6.3061608490       16.8153167623       -7.4319108347  WT01      1296            0.0000000000
      3965      1302  TIP3      OH2            16.3900500419       17.3403770187      -18.0091605700  WT01      1297            0.0000000000
      3966      1302  TIP3      H1             15.9841049200       17.4688647965      -18.8664418891  WT01      1297            0.0000000000
      3967      1302  TIP3      H2             17.2383136044       16.9413418381      -18.2026848943  WT01      1297            0.0000000000
      3968      1303  TIP3      OH2            15.4281113794       -5.4379076604       17.5874696901  WT01      1298            0.0000000000
      3969      1303  TIP3      H1             15.9883627054       -6.2072720675       17.6895905588  WT01      1298            0.0000000000
      3970      1303  TIP3      H2             15.0344183626       -5.3114317864       18.4507433854  WT01      1298            0.0000000000
      3971      1304  TIP3      OH2             3.9263749333        3.0693681023      -19.7833942077  WT01      1299            0.0000000000
      3972      1304  TIP3      H1              4.6728227558        2.4790998347      -19.6802882833  WT01      1299            0.0000000000
      3973      1304  TIP3      H2              4.3181485122        3.9378003592      -19.8759722238  WT01      1299            0.0000000000
      3974      1305  TIP3      OH2             3.8604002618       14.3307780468      -17.4809339202  WT01      1300            0.0000000000
      3975      1305  TIP3      H1              3.6214177601       13.4427075340      -17.7463579946  WT01      1300            0.0000000000
      3976      1305  TIP3      H2              4.4005931005       14.6589252226      -18.1997822624  WT01      1300            0.0000000000
      3977      1306  TIP3      OH2            10.4112114298       17.6229658284       18.1967405039  WT01      1301            0.0000000000
      3978      1306  TIP3      H1              9.8889174770       18.4113959491       18.3444523270  WT01      1301            0.0000000000
      3979      1306  TIP3      H2             11.2518497145       17.9487403066       17.8751350394  WT01      1301            0.0000000000
      3980      1307  TIP3      OH2            -3.6174093656      -19.6987258454       15.3297923624  WT01      1302            0.0000000000
      3981      1307  TIP3      H1             -3.3657615097      -19.1283286159       16.0561202280  WT01      1302            0.0000000000
      3982      1307  TIP3      H2             -4.4615042954      -20.0649795044       15.5935987643  WT01      1302            0.0000000000
      3983      1308  TIP3      OH2           -12.6446416695      -19.4897933647       -6.6776120779  WT01      1303            0.0000000000
      3984      1308  TIP3      H1            -12.5813142654      -18.5384712339       -6.5927141721  WT01      1303            0.0000000000
      3985      1308  TIP3      H2            -13.5808088817      -19.6754695327       -6.6044880566  WT01      1303            0.0000000000
      3986      1309  TIP3      OH2            -0.0605507708      -13.7950121018        9.5941974599  WT01      1304            0.0000000000
      3987      1309  TIP3      H1             -0.4572644208      -14.6004521925        9.9260352987  WT01      1304            0.0000000000
      3988      1309  TIP3      H2             -0.1103653627      -13.8776264737        8.6418712642  WT01      1304            0.0000000000
      3989      1310  TIP3      OH2            -6.2719170932      -14.9516060201       14.4934202714  WT01      1305            0.0000000000
      3990      1310  TIP3      H1             -5.7519006827      -15.6112928769       14.9523625280  WT01      1305            0.0000000000
      3991      1310  TIP3      H2             -6.2002432342      -15.1899123410       13.5691341867  WT01      1305            0.0000000000
      3992      1311  TIP3      OH2           -12.3822785086       17.5420541559      -17.8092606880  WT01      1306            0.0000000000
      3993      1311  TIP3      H1            -12.7846874911       18.4067091414      -17.7275870823  WT01      1306            0.0000000000
      3994      1311  TIP3      H2            -11.4460405391       17.7007259575      -17.6887885553  WT01      1306            0.0000000000
      3995      1312  TIP3      OH2             8.1872182341       13.8744645438       -5.3053265455  WT01      1307            0.0000000000
      3996      1312  TIP3      H1              7.9775480119       14.7317712426       -5.6758605293  WT01      1307            0.0000000000
      3997      1312  TIP3      H2              8.8301130507       13.5027253921       -5.9092537505  WT01      1307            0.0000000000
      3998      1313  TIP3      OH2            -1.1777439336       16.0287830973        8.8917332823  WT01      1308            0.0000000000
      3999      1313  TIP3      H1             -0.4148657692       15.4786468095        8.7139728189  WT01      1308            0.0000000000
      4000      1313  TIP3      H2             -0.8548938822       16.9248385772        8.7964220439  WT01      1308            0.0000000000
      4001      1314  TIP3      OH2            -8.0733588046       15.1185009561      -18.5376048355  WT01      1309            0.0000000000
      4002      1314  TIP3      H1             -7.3096313342       14.5423976573      -18.5050909737  WT01      1309            0.0000000000
      4003      1314  TIP3      H2             -8.7886781648       14.5525727976      -18.8279069945  WT01      1309            0.0000000000
      4004      1315  TIP3      OH2           -15.3439723925        5.4397334962      -14.8537486750  WT01      1310            0.0000000000
      4005      1315  TIP3      H1            -15.5388973099        6.0058864816      -15.6005464285  WT01      1310            0.0000000000
      4006      1315  TIP3      H2            -16.0114376867        5.6608828464      -14.2042759218  WT01      1310            0.0000000000
      4007      1316  TIP3      OH2            -4.0034823737      -16.3336644125       -9.5878838872  WT01      1311            0.0000000000
      4008      1316  TIP3      H1             -3.6885711276      -15.4322717701       -9.5204003913  WT01      1311            0.0000000000
      4009      1316  TIP3      H2             -3.4132634386      -16.8367140630       -9.0268005878  WT01      1311            0.0000000000
      4010      1317  TIP3      OH2             8.4627748347       12.8316464746      -15.9642667590  WT01      1312            0.0000000000
      4011      1317  TIP3      H1              8.7621081931       13.5857201344      -16.4722079636  WT01      1312            0.0000000000
      4012      1317  TIP3      H2              7.5190197447       12.7965784851      -16.1202423250  WT01      1312            0.0000000000
      4013      1318  TIP3      OH2            -3.4401469608        8.1522774484       16.9226323523  WT01      1313            0.0000000000
      4014      1318  TIP3      H1             -3.9916260817        8.8722674184       17.2287647313  WT01      1313            0.0000000000
      4015      1318  TIP3      H2             -3.2078224791        7.6730065136       17.7179665697  WT01      1313            0.0000000000
      4016      1319  TIP3      OH2            11.7701716645      -13.6563840019      -12.1360208858  WT01      1314            0.0000000000
      4017      1319  TIP3      H1             10.8261215421      -13.5879491602      -11.9934801906  WT01      1314            0.0000000000
      4018      1319  TIP3      H2             12.0690121025      -14.2763178964      -11.4707328504  WT01      1314            0.0000000000
      4019      1320  TIP3      OH2            -7.4636616699       17.3039302995       -8.8036155920  WT01      1315            0.0000000000
      4020      1320  TIP3      H1             -6.8755327585       17.6028293559       -9.4971540183  WT01      1315            0.0000000000
      4021      1320  TIP3      H2             -7.9567869516       16.5857022963       -9.2001099841  WT01      1315            0.0000000000
      4022      1321  TIP3      OH2           -16.5845399879        0.1579420816      -11.9454872354  WT01      1316            0.0000000000
      4023      1321  TIP3      H1            -17.4040589615        0.2304153726      -12.4347398132  WT01      1316            0.0000000000
      4024      1321  TIP3      H2            -16.6897248105        0.7618435674      -11.2103199350  WT01      1316            0.0000000000
      4025      1322  TIP3      OH2             2.2898618606        9.7081520504       -4.6579876525  WT01      1317            0.0000000000
      4026      1322  TIP3      H1              1.6174765160        9.8850082220       -4.0000730273  WT01      1317            0.0000000000
      4027      1322  TIP3      H2              3.0602432181        9.4519308853       -4.1509422013  WT01      1317            0.0000000000
      4028      1323  TIP3      OH2             5.3448407406       11.4240210395       -7.5093721805  WT01      1318            0.0000000000
      4029      1323  TIP3      H1              5.1871047465       10.6938930941       -6.9108203026  WT01      1318            0.0000000000
      4030      1323  TIP3      H2              4.5433164650       11.9456406785       -7.4680975024  WT01      1318            0.0000000000
      4031      1324  TIP3      OH2            13.8537781909        9.8508174751      -14.2733057577  WT01      1319            0.0000000000
      4032      1324  TIP3      H1             14.4105519546        9.9111223727      -13.4970338296  WT01      1319            0.0000000000
      4033      1324  TIP3      H2             13.8921248924        8.9281114224      -14.5250494405  WT01      1319            0.0000000000
      4034      1325  TIP3      OH2           -11.6735351137       17.7467191785       -7.3267303218  WT01      1320            0.0000000000
      4035      1325  TIP3      H1            -11.9338543469       18.6666922676       -7.3727218788  WT01      1320            0.0000000000
      4036      1325  TIP3      H2            -11.9657604105       17.3727757668       -8.1579959303  WT01      1320            0.0000000000
      4037      1326  TIP3      OH2             4.8191810869       11.7962989089       -4.3771656195  WT01      1321            0.0000000000
      4038      1326  TIP3      H1              4.8148791444       12.5664813119       -4.9455249868  WT01      1321            0.0000000000
      4039      1326  TIP3      H2              4.0066539829       11.8635855327       -3.8756638483  WT01      1321            0.0000000000
      4040      1327  TIP3      OH2             5.3187442453      -10.6143954937      -16.6479864350  WT01      1322            0.0000000000
      4041      1327  TIP3      H1              5.2723762355      -11.5536181053      -16.4692612141  WT01      1322            0.0000000000
      4042      1327  TIP3      H2              4.4364292986      -10.2914499715      -16.4650702370  WT01      1322            0.0000000000
      4043      1328  TIP3      OH2            -5.8193783214       -4.3990220302      -15.7754524425  WT01      1323            0.0000000000
      4044      1328  TIP3      H1             -5.4248671958       -5.0978497731      -16.2972115522  WT01      1323            0.0000000000
      4045      1328  TIP3      H2             -6.2081249458       -3.8081943255      -16.4204567032  WT01      1323            0.0000000000
      4046      1329  TIP3      OH2            -5.4306489308       17.6244483218       11.2837437922  WT01      1324            0.0000000000
      4047      1329  TIP3      H1             -6.0218980271       17.1495093466       10.6997152938  WT01      1324            0.0000000000
      4048      1329  TIP3      H2             -5.0723529902       18.3278301651       10.7423476225  WT01      1324            0.0000000000
      4049      1330  TIP3      OH2             2.3499899031       12.4445827861      -12.9332987853  WT01      1325            0.0000000000
      4050      1330  TIP3      H1              2.9435100749       11.7482504790      -12.6520747914  WT01      1325            0.0000000000
      4051      1330  TIP3      H2              1.8214602083       12.0449897057      -13.6241052292  WT01      1325            0.0000000000
      4052      1331  TIP3      OH2            -1.8535079570        9.6587752211      -12.2297918243  WT01      1326            0.0000000000
      4053      1331  TIP3      H1             -2.1921657141        8.8650574178      -11.8156001013  WT01      1326            0.0000000000
      4054      1331  TIP3      H2             -2.4118842390       10.3607859180      -11.8956829794  WT01      1326            0.0000000000
      4055      1332  TIP3      OH2             6.6528129941        1.8741600408       -5.7403848586  WT01      1327            0.0000000000
      4056      1332  TIP3      H1              5.9531335878        2.3319211045       -6.2063626993  WT01      1327            0.0000000000
      4057      1332  TIP3      H2              6.6280789263        0.9821071214       -6.0865952368  WT01      1327            0.0000000000
      4058      1333  TIP3      OH2             0.9691329194      -12.9687752134      -11.9943731274  WT01      1328            0.0000000000
      4059      1333  TIP3      H1              1.0870942700      -12.1545787841      -11.5050868049  WT01      1328            0.0000000000
      4060      1333  TIP3      H2              1.4348498909      -12.8234802513      -12.8179196576  WT01      1328            0.0000000000
      4061      1334  TIP3      OH2           -12.3294901109      -12.2802724406       10.8772198388  WT01      1329            0.0000000000
      4062      1334  TIP3      H1            -12.1694814850      -11.3732430335       11.1378473609  WT01      1329            0.0000000000
      4063      1334  TIP3      H2            -11.6441158250      -12.4703710719       10.2366291663  WT01      1329            0.0000000000
      4064      1335  TIP3      OH2            15.3529213198        5.6553818660       12.3131073130  WT01      1330            0.0000000000
      4065      1335  TIP3      H1             15.0136836186        6.5296823497       12.1214089631  WT01      1330            0.0000000000
      4066      1335  TIP3      H2             15.3670942849        5.6077314367       13.2690154543  WT01      1330            0.0000000000
      4067      1336  TIP3      OH2            11.1304245123       -7.7575845158       13.3537592109  WT01      1331            0.0000000000
      4068      1336  TIP3      H1             10.2292448571       -7.6969277514       13.0368557604  WT01      1331            0.0000000000
      4069      1336  TIP3      H2             11.4573576976       -8.5809862026       12.9913282992  WT01      1331            0.0000000000
      4070      1337  TIP3      OH2            -6.8536500062       17.4139131743      -12.5148150343  WT01      1332            0.0000000000
      4071      1337  TIP3      H1             -6.4539876627       16.9165828959      -13.2283726118  WT01      1332            0.0000000000
      4072      1337  TIP3      H2             -6.1119528861       17.7485783905      -12.0107154546  WT01      1332            0.0000000000
      4073      1338  TIP3      OH2            14.8678840805       -0.2449225457      -19.8325380277  WT01      1333            0.0000000000
      4074      1338  TIP3      H1             14.2019827900       -0.0278275972      -19.1800987082  WT01      1333            0.0000000000
      4075      1338  TIP3      H2             14.6832052446       -1.1534086115      -20.0708206474  WT01      1333            0.0000000000
      4076      1339  TIP3      OH2            -3.4856014655        6.2754277505       -3.4662806365  WT01      1334            0.0000000000
      4077      1339  TIP3      H1             -3.8723179252        5.8919416019       -4.2534404453  WT01      1334            0.0000000000
      4078      1339  TIP3      H2             -2.5431068611        6.1494291587       -3.5760990625  WT01      1334            0.0000000000
      4079      1340  TIP3      OH2            10.3621000060      -17.8664116395       -3.8693985259  WT01      1335            0.0000000000
      4080      1340  TIP3      H1             10.0346396610      -18.6372494539       -3.4059218843  WT01      1335            0.0000000000
      4081      1340  TIP3      H2             11.1993214243      -18.1464908340       -4.2393279144  WT01      1335            0.0000000000
      4082      1341  TIP3      OH2             5.7310889828        0.4996187896       13.0896378418  WT01      1336            0.0000000000
      4083      1341  TIP3      H1              6.0108001606       -0.2732984689       12.5991356710  WT01      1336            0.0000000000
      4084      1341  TIP3      H2              6.4465398205        0.6663027919       13.7032976443  WT01      1336            0.0000000000
      4085      1342  TIP3      OH2            11.3431751797       12.4177570047      -10.5984108426  WT01      1337            0.0000000000
      4086      1342  TIP3      H1             11.7623458616       13.0765327990      -11.1520733781  WT01      1337            0.0000000000
      4087      1342  TIP3      H2             12.0384161987       12.1195957663      -10.0119199112  WT01      1337            0.0000000000
      4088      1343  TIP3      OH2            13.1658949584       17.4648936622      -17.7864772077  WT01      1338            0.0000000000
      4089      1343  TIP3      H1             13.7815464985       18.1169045102      -18.1212709445  WT01      1338            0.0000000000
      4090      1343  TIP3      H2             12.4579200244       17.9798341255      -17.3993859742  WT01      1338            0.0000000000
      4091      1344  TIP3      OH2           -16.2338235123       14.4991142153      -15.7591746302  WT01      1339            0.0000000000
      4092      1344  TIP3      H1            -15.9673182240       15.3283194083      -16.1561953983  WT01      1339            0.0000000000
      4093      1344  TIP3      H2            -16.8176554340       14.7521129342      -15.0440776113  WT01      1339            0.0000000000
      4094      1345  TIP3      OH2             2.2478906245        8.4159950935       11.5405272773  WT01      1340            0.0000000000
      4095      1345  TIP3      H1              3.0665227506        8.8004463128       11.8540085579  WT01      1340            0.0000000000
      4096      1345  TIP3      H2              2.1041849839        8.8216483888       10.6855267486  WT01      1340            0.0000000000
      4097      1346  TIP3      OH2            -8.2127164431       15.5979109825        6.9388249784  WT01      1341            0.0000000000
      4098      1346  TIP3      H1             -9.0749349579       15.9195900859        7.2021377170  WT01      1341            0.0000000000
      4099      1346  TIP3      H2             -7.8640548870       16.2841181746        6.3698024658  WT01      1341            0.0000000000
      4100      1347  TIP3      OH2            15.7689371985       -8.9070941822       19.8881252171  WT01      1342            0.0000000000
      4101      1347  TIP3      H1             16.0957525419       -8.6316235533       19.0316560262  WT01      1342            0.0000000000
      4102      1347  TIP3      H2             14.8259129010       -8.7480380837       19.8476512390  WT01      1342            0.0000000000
      4103      1348  TIP3      OH2           -11.4355277666       18.1350943572       19.0148612968  WT01      1343            0.0000000000
      4104      1348  TIP3      H1            -10.4819075523       18.0676402608       19.0627177774  WT01      1343            0.0000000000
      4105      1348  TIP3      H2            -11.6743963253       18.6902518360       19.7571373886  WT01      1343            0.0000000000
      4106      1349  TIP3      OH2             2.0351328459       16.6877906403      -16.1995972962  WT01      1344            0.0000000000
      4107      1349  TIP3      H1              1.7994277306       15.8210906794      -16.5305143363  WT01      1344            0.0000000000
      4108      1349  TIP3      H2              2.7736932171       16.5276750747      -15.6121252588  WT01      1344            0.0000000000
      4109      1350  TIP3      OH2            -0.6432651693      -16.1548182124      -15.1967787953  WT01      1345            0.0000000000
      4110      1350  TIP3      H1             -1.1471944371      -16.3758958026      -14.4135726901  WT01      1345            0.0000000000
      4111      1350  TIP3      H2              0.1712021275      -15.7809327019      -14.8604984681  WT01      1345            0.0000000000
      4112      1351  TIP3      OH2            -9.5914925740      -13.7503160568        1.4284698847  WT01      1346            0.0000000000
      4113      1351  TIP3      H1             -9.1540181570      -13.8050955434        0.5788539989  WT01      1346            0.0000000000
      4114      1351  TIP3      H2             -8.8770192435      -13.7012159506        2.0635673975  WT01      1346            0.0000000000
      4115      1352  TIP3      OH2            17.3464889829        2.3705402875       17.7985541602  WT01      1347            0.0000000000
      4116      1352  TIP3      H1             16.7314547609        3.0712867704       18.0151622934  WT01      1347            0.0000000000
      4117      1352  TIP3      H2             17.6187149344        2.5592541620       16.9004940754  WT01      1347            0.0000000000
      4118      1353  TIP3      OH2             8.8706272159       10.0892925521        1.2476063952  WT01      1348            0.0000000000
      4119      1353  TIP3      H1              9.1953333208       10.3138587914        0.3756157068  WT01      1348            0.0000000000
      4120      1353  TIP3      H2              7.9662533801        9.8112077332        1.1026629245  WT01      1348            0.0000000000
      4121      1354  TIP3      OH2            12.8794868743       10.4130849059       18.9456603994  WT01      1349            0.0000000000
      4122      1354  TIP3      H1             13.4669751645       10.3491245419       19.6986533554  WT01      1349            0.0000000000
      4123      1354  TIP3      H2             12.5661814722       11.3174130975       18.9618486044  WT01      1349            0.0000000000
      4124      1355  TIP3      OH2            -1.1718687149       16.2164347674      -15.0337474644  WT01      1350            0.0000000000
      4125      1355  TIP3      H1             -0.3369265646       15.9619071031      -14.6409127857  WT01      1350            0.0000000000
      4126      1355  TIP3      H2             -1.0074586005       16.2030451065      -15.9766270126  WT01      1350            0.0000000000
      4127      1356  TIP3      OH2            15.4652479668       10.6050703783      -12.3834840708  WT01      1351            0.0000000000
      4128      1356  TIP3      H1             15.9615498839       11.4228851229      -12.4165788077  WT01      1351            0.0000000000
      4129      1356  TIP3      H2             15.4460963594       10.3733796649      -11.4549451969  WT01      1351            0.0000000000
      4130      1357  TIP3      OH2             7.2503674565       11.6892593092        3.1502642590  WT01      1352            0.0000000000
      4131      1357  TIP3      H1              7.8391247932       11.8579351128        2.4146386186  WT01      1352            0.0000000000
      4132      1357  TIP3      H2              6.9915824528       10.7736817670        3.0454792540  WT01      1352            0.0000000000
      4133      1358  TIP3      OH2           -19.4367680943       15.7214878687        5.1004468327  WT01      1353            0.0000000000
      4134      1358  TIP3      H1            -18.5282217750       15.9226402694        4.8761409961  WT01      1353            0.0000000000
      4135      1358  TIP3      H2            -19.7694179579       15.2384386162        4.3439818309  WT01      1353            0.0000000000
      4136      1359  TIP3      OH2            12.7809302815       -3.8699960645       -9.6822996329  WT01      1354            0.0000000000
      4137      1359  TIP3      H1             12.4831040553       -4.7286521569       -9.3818981263  WT01      1354            0.0000000000
      4138      1359  TIP3      H2             12.8321886230       -3.9533689270      -10.6344831022  WT01      1354            0.0000000000
      4139      1360  TIP3      OH2            -8.5133858889       15.7516592882       -6.6167656813  WT01      1355            0.0000000000
      4140      1360  TIP3      H1             -9.1029764949       15.4542566399       -7.3097060779  WT01      1355            0.0000000000
      4141      1360  TIP3      H2             -7.8841829700       16.3179054829       -7.0636445742  WT01      1355            0.0000000000
      4142      1361  TIP3      OH2            -4.7619448933      -18.3004236676      -11.7295019412  WT01      1356            0.0000000000
      4143      1361  TIP3      H1             -4.5462165956      -17.6446117441      -11.0664756721  WT01      1356            0.0000000000
      4144      1361  TIP3      H2             -3.9152699230      -18.6554862603      -12.0002487990  WT01      1356            0.0000000000
      4145      1362  TIP3      OH2            16.3024305275       18.1491432161      -11.3909183489  WT01      1357            0.0000000000
      4146      1362  TIP3      H1             15.5235768514       17.7210357794      -11.7463656514  WT01      1357            0.0000000000
      4147      1362  TIP3      H2             16.9622640941       17.4565720493      -11.3563256574  WT01      1357            0.0000000000
      4148      1363  TIP3      OH2             3.4736577132       -9.0646166579       12.4794630851  WT01      1358            0.0000000000
      4149      1363  TIP3      H1              3.4648018959       -8.1231639005       12.6521480327  WT01      1358            0.0000000000
      4150      1363  TIP3      H2              2.7042231375       -9.4002237768       12.9394305910  WT01      1358            0.0000000000
      4151      1364  TIP3      OH2            -6.0807595784        3.0676867279      -14.2147584985  WT01      1359            0.0000000000
      4152      1364  TIP3      H1             -6.5442344060        2.4439252156      -14.7736363662  WT01      1359            0.0000000000
      4153      1364  TIP3      H2             -5.2636346441        3.2459550551      -14.6803323986  WT01      1359            0.0000000000
      4154      1365  TIP3      OH2            -9.0699704852       12.7438033073      -10.0562498708  WT01      1360            0.0000000000
      4155      1365  TIP3      H1             -9.0562256111       12.6330161179      -11.0069175773  WT01      1360            0.0000000000
      4156      1365  TIP3      H2             -9.6712588236       12.0674253043       -9.7444856295  WT01      1360            0.0000000000
      4157      1366  TIP3      OH2           -10.7950065076        5.6265975116      -16.4198105002  WT01      1361            0.0000000000
      4158      1366  TIP3      H1            -11.1218311599        4.7770404064      -16.1237189896  WT01      1361            0.0000000000
      4159      1366  TIP3      H2             -9.8705740016        5.6279017806      -16.1715069527  WT01      1361            0.0000000000
      4160      1367  TIP3      OH2            -5.0363119992       14.4644648170       -8.1813400147  WT01      1362            0.0000000000
      4161      1367  TIP3      H1             -5.6424714301       14.9298454814       -7.6049517840  WT01      1362            0.0000000000
      4162      1367  TIP3      H2             -4.2818910042       14.2663329101       -7.6265206559  WT01      1362            0.0000000000
      4163      1368  TIP3      OH2            -7.7120542195       -6.0009824830      -11.5105583340  WT01      1363            0.0000000000
      4164      1368  TIP3      H1             -7.6407505708       -6.7864346117      -10.9681446964  WT01      1363            0.0000000000
      4165      1368  TIP3      H2             -8.2108401061       -5.3839926461      -10.9750511057  WT01      1363            0.0000000000
      4166      1369  TIP3      OH2             7.3523482500       16.5643424844        9.8255077573  WT01      1364            0.0000000000
      4167      1369  TIP3      H1              8.1720077190       16.9869693054        9.5690380009  WT01      1364            0.0000000000
      4168      1369  TIP3      H2              7.3344297421       16.6347519449       10.7799464646  WT01      1364            0.0000000000
      4169      1370  TIP3      OH2            11.6108759852      -12.7315191924        6.0968507643  WT01      1365            0.0000000000
      4170      1370  TIP3      H1             12.1009178321      -13.2698686799        5.4753440237  WT01      1365            0.0000000000
      4171      1370  TIP3      H2             11.4471347647      -13.3119767297        6.8401472537  WT01      1365            0.0000000000
      4172      1371  TIP3      OH2             7.8553455219        7.6125291915      -13.2660040977  WT01      1366            0.0000000000
      4173      1371  TIP3      H1              7.6205717982        8.4775998310      -12.9301977571  WT01      1366            0.0000000000
      4174      1371  TIP3      H2              7.0620101607        7.3007172216      -13.7014626044  WT01      1366            0.0000000000
      4175      1372  TIP3      OH2            -6.7876729676      -19.1076457992       -2.2018864057  WT01      1367            0.0000000000
      4176      1372  TIP3      H1             -6.1983759114      -18.7100889501       -1.5608642982  WT01      1367            0.0000000000
      4177      1372  TIP3      H2             -6.2894817044      -19.1060569392       -3.0192203349  WT01      1367            0.0000000000
      4178      1373  TIP3      OH2             3.0781203883       16.0550039055      -11.5161416631  WT01      1368            0.0000000000
      4179      1373  TIP3      H1              3.5999385679       16.7490614334      -11.1133740544  WT01      1368            0.0000000000
      4180      1373  TIP3      H2              2.8988885044       15.4440283841      -10.8014272760  WT01      1368            0.0000000000
      4181      1374  TIP3      OH2           -10.4699676541      -19.5792040164       -1.4860751927  WT01      1369            0.0000000000
      4182      1374  TIP3      H1            -10.5262953158      -19.4074383172       -2.4260515488  WT01      1369            0.0000000000
      4183      1374  TIP3      H2            -11.3201463228      -19.9562401008       -1.2596423476  WT01      1369            0.0000000000
      4184      1375  TIP3      OH2             8.1031288069      -17.3122337617       -0.4059770757  WT01      1370            0.0000000000
      4185      1375  TIP3      H1              7.7926452808      -17.6361644293       -1.2514950907  WT01      1370            0.0000000000
      4186      1375  TIP3      H2              8.2046329002      -16.3689389123       -0.5329556455  WT01      1370            0.0000000000
      4187      1376  TIP3      OH2            -1.2019049588       18.6473300854        1.2294304550  WT01      1371            0.0000000000
      4188      1376  TIP3      H1             -2.0765195220       18.4144924312        1.5409875183  WT01      1371            0.0000000000
      4189      1376  TIP3      H2             -1.2670832943       18.6023248017        0.2755132049  WT01      1371            0.0000000000
      4190      1377  TIP3      OH2            13.5292774605      -17.8126081816      -18.5512479698  WT01      1372            0.0000000000
      4191      1377  TIP3      H1             13.9219502824      -17.0228186831      -18.9230979583  WT01      1372            0.0000000000
      4192      1377  TIP3      H2             12.6001554120      -17.7451055140      -18.7712648324  WT01      1372            0.0000000000
      4193      1378  TIP3      OH2            12.4654190481       11.7799841868       -7.9397332179  WT01      1373            0.0000000000
      4194      1378  TIP3      H1             13.2021619101       12.0769840316       -7.4056612579  WT01      1373            0.0000000000
      4195      1378  TIP3      H2             12.4872070451       10.8256357422       -7.8691914545  WT01      1373            0.0000000000
      4196      1379  TIP3      OH2             0.6489793788       14.2030164694        7.4828470215  WT01      1374            0.0000000000
      4197      1379  TIP3      H1              1.5642498219       14.4339178587        7.3241133592  WT01      1374            0.0000000000
      4198      1379  TIP3      H2              0.6872221567       13.3400339648        7.8951945663  WT01      1374            0.0000000000
      4199      1380  TIP3      OH2            10.9237834095       14.5845886442        3.4443403409  WT01      1375            0.0000000000
      4200      1380  TIP3      H1             10.2379444979       14.1939630411        2.9027976958  WT01      1375            0.0000000000
      4201      1380  TIP3      H2             11.2491377794       15.3203979879        2.9257258842  WT01      1375            0.0000000000
      4202      1381  TIP3      OH2            -5.7362590604      -18.9528864556      -14.1648666448  WT01      1376            0.0000000000
      4203      1381  TIP3      H1             -5.6258752160      -18.8875635218      -13.2162992343  WT01      1376            0.0000000000
      4204      1381  TIP3      H2             -4.8515702162      -18.8543093777      -14.5167757520  WT01      1376            0.0000000000
      4205      1382  TIP3      OH2            -2.9995590509      -14.6080784082       -4.6145921841  WT01      1377            0.0000000000
      4206      1382  TIP3      H1             -2.5961375589      -14.9381201526       -5.4174342344  WT01      1377            0.0000000000
      4207      1382  TIP3      H2             -2.4016540472      -13.9262078463       -4.3083341976  WT01      1377            0.0000000000
      4208      1383  TIP3      OH2             0.4699818656      -17.2224911418       -2.9295159741  WT01      1378            0.0000000000
      4209      1383  TIP3      H1              0.2374368778      -16.3040899238       -2.7927905465  WT01      1378            0.0000000000
      4210      1383  TIP3      H2              1.1178890681      -17.4096866012       -2.2502473028  WT01      1378            0.0000000000
      4211      1384  TIP3      OH2            13.6417528807       -7.1795878851       16.1191440109  WT01      1379            0.0000000000
      4212      1384  TIP3      H1             14.4935122825       -6.7685427041       16.2667231137  WT01      1379            0.0000000000
      4213      1384  TIP3      H2             13.8509633496       -8.0552288997       15.7940046493  WT01      1379            0.0000000000
      4214      1385  TIP3      OH2             0.4861600516       18.2221492131        7.8514420348  WT01      1380            0.0000000000
      4215      1385  TIP3      H1              0.8325943832       18.5138639770        8.6947199020  WT01      1380            0.0000000000
      4216      1385  TIP3      H2              0.3731238680       19.0276426592        7.3468283800  WT01      1380            0.0000000000
      4217      1386  TIP3      OH2            12.3137416787        0.2240633488       17.8188182892  WT01      1381            0.0000000000
      4218      1386  TIP3      H1             12.7399825892        0.5159786944       17.0130044594  WT01      1381            0.0000000000
      4219      1386  TIP3      H2             12.0588486023        1.0331938675       18.2621794673  WT01      1381            0.0000000000
      4220      1387  TIP3      OH2            12.5738810800       -4.8745281265       17.5619884224  WT01      1382            0.0000000000
      4221      1387  TIP3      H1             13.5064321204       -4.6596090045       17.5817403629  WT01      1382            0.0000000000
      4222      1387  TIP3      H2             12.5477226333       -5.8124800909       17.3727963002  WT01      1382            0.0000000000
      4223      1388  TIP3      OH2           -14.3874463883        1.2148026110      -13.2672339629  WT01      1383            0.0000000000
      4224      1388  TIP3      H1            -14.7671411156        1.9071316025      -13.8082924556  WT01      1383            0.0000000000
      4225      1388  TIP3      H2            -15.1424369021        0.7338056832      -12.9283193858  WT01      1383            0.0000000000
      4226      1389  TIP3      OH2             0.4278855071       -5.5512372976       18.8093818557  WT01      1384            0.0000000000
      4227      1389  TIP3      H1             -0.4473044774       -5.3922443317       18.4558347741  WT01      1384            0.0000000000
      4228      1389  TIP3      H2              1.0209185504       -5.1656843374       18.1644845496  WT01      1384            0.0000000000
      4229      1390  TIP3      OH2             3.8466773471      -17.4736016043       10.7020953950  WT01      1385            0.0000000000
      4230      1390  TIP3      H1              3.4473303809      -16.6625872881       10.3874375004  WT01      1385            0.0000000000
      4231      1390  TIP3      H2              3.7051565594      -18.1014318202        9.9935525963  WT01      1385            0.0000000000
      4232      1391  TIP3      OH2            11.0150807810      -12.2027147484        0.7055086179  WT01      1386            0.0000000000
      4233      1391  TIP3      H1             11.8388361300      -12.2971422596        0.2272384212  WT01      1386            0.0000000000
      4234      1391  TIP3      H2             10.6161237120      -13.0720973496        0.6703097417  WT01      1386            0.0000000000
      4235      1392  TIP3      OH2             4.3441609783       15.6059978849       -8.8879334819  WT01      1387            0.0000000000
      4236      1392  TIP3      H1              5.2047336277       15.1877253228       -8.8615784046  WT01      1387            0.0000000000
      4237      1392  TIP3      H2              3.9119998061       15.3166830504       -8.0843381492  WT01      1387            0.0000000000
      4238      1393  TIP3      OH2           -10.8185647767       -7.0867428726       18.5683682634  WT01      1388            0.0000000000
      4239      1393  TIP3      H1            -10.0577227301       -6.5076067037       18.5241812851  WT01      1388            0.0000000000
      4240      1393  TIP3      H2            -10.6011737095       -7.8135301703       17.9846276027  WT01      1388            0.0000000000
      4241      1394  TIP3      OH2            -6.2452093156       14.9492400772       -5.3328517354  WT01      1389            0.0000000000
      4242      1394  TIP3      H1             -7.0640586208       15.2108826273       -5.7538752530  WT01      1389            0.0000000000
      4243      1394  TIP3      H2             -5.9028013650       15.7574136882       -4.9509564345  WT01      1389            0.0000000000
      4244      1395  TIP3      OH2           -11.0644040606       13.1208234040       -6.3745584295  WT01      1390            0.0000000000
      4245      1395  TIP3      H1            -11.2954731677       13.5997177393       -7.1704849929  WT01      1390            0.0000000000
      4246      1395  TIP3      H2            -11.8536137471       13.1583988177       -5.8342178239  WT01      1390            0.0000000000
      4247      1396  TIP3      OH2            -6.5275239042       11.1560980137      -12.8539718287  WT01      1391            0.0000000000
      4248      1396  TIP3      H1             -6.2165663382       11.7495552697      -12.1703449652  WT01      1391            0.0000000000
      4249      1396  TIP3      H2             -7.4771698533       11.1313326684      -12.7365364846  WT01      1391            0.0000000000
      4250      1397  TIP3      OH2            -2.9868720611        0.6843507414        2.5002975024  WT01      1392            0.0000000000
      4251      1397  TIP3      H1             -3.6814697853        0.7894269262        1.8501245962  WT01      1392            0.0000000000
      4252      1397  TIP3      H2             -2.2349211902        0.3685291453        1.9992402020  WT01      1392            0.0000000000
      4253      1398  TIP3      OH2             7.4870046795       12.4516008190       13.6988072556  WT01      1393            0.0000000000
      4254      1398  TIP3      H1              8.1426045497       12.0998237364       14.3010310556  WT01      1393            0.0000000000
      4255      1398  TIP3      H2              7.1300927919       13.2154060299       14.1520702205  WT01      1393            0.0000000000
      4256      1399  TIP3      OH2            -0.7793226411       16.8031542101      -11.4377951903  WT01      1394            0.0000000000
      4257      1399  TIP3      H1              0.1607873314       16.6265416401      -11.4026803684  WT01      1394            0.0000000000
      4258      1399  TIP3      H2             -0.8458713457       17.6699322714      -11.8384182967  WT01      1394            0.0000000000
      4259      1400  TIP3      OH2            -4.0625944310        8.4610170716        3.6093605184  WT01      1395            0.0000000000
      4260      1400  TIP3      H1             -4.2952469958        7.6130957799        3.9876911650  WT01      1395            0.0000000000
      4261      1400  TIP3      H2             -3.1184786127        8.4067997316        3.4612470053  WT01      1395            0.0000000000
      4262      1401  TIP3      OH2           -10.4522650239       12.6128997281        6.4893497838  WT01      1396            0.0000000000
      4263      1401  TIP3      H1            -10.8404685849       13.2016952330        5.8421638293  WT01      1396            0.0000000000
      4264      1401  TIP3      H2             -9.9190174809       13.1831053980        7.0431948551  WT01      1396            0.0000000000
      4265      1402  TIP3      OH2            -6.6137659998        8.0591531681       -8.2465417620  WT01      1397            0.0000000000
      4266      1402  TIP3      H1             -6.4295831872        8.9501741934       -8.5438463785  WT01      1397            0.0000000000
      4267      1402  TIP3      H2             -6.5523044535        8.1069654829       -7.2925143662  WT01      1397            0.0000000000
      4268      1403  TIP3      OH2            -6.5920338849       12.1851617019       -5.6715727571  WT01      1398            0.0000000000
      4269      1403  TIP3      H1             -6.5671881247       13.0914317130       -5.9786381673  WT01      1398            0.0000000000
      4270      1403  TIP3      H2             -5.8306414026       12.1055036880       -5.0969703731  WT01      1398            0.0000000000
      4271      1404  TIP3      OH2             4.5558158849        5.6125593953       -5.6519722295  WT01      1399            0.0000000000
      4272      1404  TIP3      H1              5.4624813947        5.5708527272       -5.3479162836  WT01      1399            0.0000000000
      4273      1404  TIP3      H2              4.4270861815        4.7965801018       -6.1355404947  WT01      1399            0.0000000000
      4274      1405  TIP3      OH2            16.4202185303      -16.2780603697       12.0610867284  WT01      1400            0.0000000000
      4275      1405  TIP3      H1             15.5104029791      -16.2385041081       12.3558794966  WT01      1400            0.0000000000
      4276      1405  TIP3      H2             16.6010873708      -17.2131472506       11.9655315156  WT01      1400            0.0000000000
      4277      1406  TIP3      OH2             3.0227716017      -16.0220590776       -1.7039333235  WT01      1401            0.0000000000
      4278      1406  TIP3      H1              3.7930815450      -16.1031711918       -2.2663168469  WT01      1401            0.0000000000
      4279      1406  TIP3      H2              3.3340417756      -16.2699423648       -0.8333607730  WT01      1401            0.0000000000
      4280      1407  TIP3      OH2             1.2080500037        0.8848460515       -8.9327444487  WT01      1402            0.0000000000
      4281      1407  TIP3      H1              1.1104630860       -0.0594803800       -8.8104489243  WT01      1402            0.0000000000
      4282      1407  TIP3      H2              1.7421103873        0.9706414269       -9.7224598856  WT01      1402            0.0000000000
      4283      1408  TIP3      OH2             3.6795193047       11.3871775811        7.6745657180  WT01      1403            0.0000000000
      4284      1408  TIP3      H1              4.4933256829       11.8874569298        7.6139722935  WT01      1403            0.0000000000
      4285      1408  TIP3      H2              3.5050385597       11.1031546616        6.7772813362  WT01      1403            0.0000000000
      4286      1409  TIP3      OH2           -12.7192988669        8.3051162311       -8.9326533875  WT01      1404            0.0000000000
      4287      1409  TIP3      H1            -12.0603232289        8.9024495234       -8.5788513841  WT01      1404            0.0000000000
      4288      1409  TIP3      H2            -13.2103578493        8.8344779151       -9.5610394905  WT01      1404            0.0000000000
      4289      1410  TIP3      OH2             6.5014339101        8.0012357891        8.4865936810  WT01      1405            0.0000000000
      4290      1410  TIP3      H1              6.7366056035        8.6434128783        9.1563209925  WT01      1405            0.0000000000
      4291      1410  TIP3      H2              5.5813215390        7.8011175778        8.6585754743  WT01      1405            0.0000000000
      4292      1411  TIP3      OH2            14.8417177016       14.7512233552        6.8923685444  WT01      1406            0.0000000000
      4293      1411  TIP3      H1             14.5804370266       14.0324143103        7.4679358965  WT01      1406            0.0000000000
      4294      1411  TIP3      H2             14.1993621626       14.7361804723        6.1828723258  WT01      1406            0.0000000000
      4295      1412  TIP3      OH2           -17.7112336095       -1.0341810540       10.3751698612  WT01      1407            0.0000000000
      4296      1412  TIP3      H1            -18.0760645366       -1.1227626288        9.4946680098  WT01      1407            0.0000000000
      4297      1412  TIP3      H2            -18.3493510652       -0.4986372013       10.8465833798  WT01      1407            0.0000000000
      4298      1413  TIP3      OH2            12.7796486994      -19.6112026212       -1.5626737265  WT01      1408            0.0000000000
      4299      1413  TIP3      H1             13.0107175151      -19.8049583202       -0.6542147332  WT01      1408            0.0000000000
      4300      1413  TIP3      H2             13.2404365293      -20.2759729278       -2.0745202136  WT01      1408            0.0000000000
      4301      1414  TIP3      OH2            -0.2439982457       16.3193979665        5.9566654606  WT01      1409            0.0000000000
      4302      1414  TIP3      H1              0.0795155249       16.9598926220        6.5901772976  WT01      1409            0.0000000000
      4303      1414  TIP3      H2             -0.0430591947       15.4701992179        6.3500060179  WT01      1409            0.0000000000
      4304      1415  TIP3      OH2           -19.7785261269       -7.9481152013        2.6269640965  WT01      1410            0.0000000000
      4305      1415  TIP3      H1            -19.2589053719       -8.5499990715        2.0940833511  WT01      1410            0.0000000000
      4306      1415  TIP3      H2            -20.6063188966       -8.4071588410        2.7693364190  WT01      1410            0.0000000000
      4307      1416  TIP3      OH2             5.6716329877        4.5514331840       -9.4700914970  WT01      1411            0.0000000000
      4308      1416  TIP3      H1              5.6753828333        5.5043409033       -9.5605604322  WT01      1411            0.0000000000
      4309      1416  TIP3      H2              5.6159025700        4.2253099505      -10.3682950197  WT01      1411            0.0000000000
      4310      1417  TIP3      OH2             6.1293123468        6.0038087921      -14.6049729442  WT01      1412            0.0000000000
      4311      1417  TIP3      H1              5.4872002365        5.4798612167      -15.0839330543  WT01      1412            0.0000000000
      4312      1417  TIP3      H2              5.6216314273        6.4373728334      -13.9190326283  WT01      1412            0.0000000000
      4313      1418  TIP3      OH2             6.6789283521        9.4408197825       13.3325305942  WT01      1413            0.0000000000
      4314      1418  TIP3      H1              6.7501376026        9.7970333342       14.2181224636  WT01      1413            0.0000000000
      4315      1418  TIP3      H2              7.4388848120        9.7940009941       12.8699713852  WT01      1413            0.0000000000
      4316      1419  TIP3      OH2             9.5373298115      -16.4698564696       -5.9473771788  WT01      1414            0.0000000000
      4317      1419  TIP3      H1             10.0665525773      -16.6329336046       -6.7281210057  WT01      1414            0.0000000000
      4318      1419  TIP3      H2              9.8697153820      -17.0899276579       -5.2983291336  WT01      1414            0.0000000000
      4319      1420  TIP3      OH2            15.7533529754       14.0463898800      -11.5125790734  WT01      1415            0.0000000000
      4320      1420  TIP3      H1             16.4827931043       14.5721610010      -11.8407766324  WT01      1415            0.0000000000
      4321      1420  TIP3      H2             16.1541786743       13.4453878952      -10.8845924617  WT01      1415            0.0000000000
      4322      1421  TIP3      OH2            -3.5375228386       15.2842766110       -2.6535548770  WT01      1416            0.0000000000
      4323      1421  TIP3      H1             -2.6233422095       15.1468630790       -2.9017949011  WT01      1416            0.0000000000
      4324      1421  TIP3      H2             -3.9435812586       15.6630491838       -3.4332212856  WT01      1416            0.0000000000
      4325      1422  TIP3      OH2             3.6840307638      -15.0267896177      -10.0479040154  WT01      1417            0.0000000000
      4326      1422  TIP3      H1              3.9714828747      -15.1537525255       -9.1437560656  WT01      1417            0.0000000000
      4327      1422  TIP3      H2              3.2523293105      -14.1724736549      -10.0447572715  WT01      1417            0.0000000000
      4328      1423  TIP3      OH2             7.8051242369       12.3070793153      -19.6818886348  WT01      1418            0.0000000000
      4329      1423  TIP3      H1              7.0656376760       12.8402928464      -19.3902128429  WT01      1418            0.0000000000
      4330      1423  TIP3      H2              7.6676757570       11.4570034335      -19.2639045184  WT01      1418            0.0000000000
      4331      1424  TIP3      OH2            -3.2064205524       12.4716992734       -1.1571802143  WT01      1419            0.0000000000
      4332      1424  TIP3      H1             -3.7412558382       13.0983236784       -1.6445454605  WT01      1419            0.0000000000
      4333      1424  TIP3      H2             -2.3438254299       12.8831304516       -1.1034600948  WT01      1419            0.0000000000
      4334      1425  TIP3      OH2             3.3228683594      -12.8299964780        1.3824883276  WT01      1420            0.0000000000
      4335      1425  TIP3      H1              2.4434954741      -13.1748106568        1.2274453598  WT01      1420            0.0000000000
      4336      1425  TIP3      H2              3.3461610467      -12.0051110119        0.8974592257  WT01      1420            0.0000000000
      4337      1426  TIP3      OH2            -2.2331680795       12.8214378983       -4.0414503422  WT01      1421            0.0000000000
      4338      1426  TIP3      H1             -1.4789735859       12.4723078506       -4.5163510546  WT01      1421            0.0000000000
      4339      1426  TIP3      H2             -2.1042621868       12.5300822023       -3.1388280844  WT01      1421            0.0000000000
      4340      1427  TIP3      OH2            -2.7778512560      -15.8890755338        4.1514022515  WT01      1422            0.0000000000
      4341      1427  TIP3      H1             -2.8712280427      -16.8200783374        3.9495449591  WT01      1422            0.0000000000
      4342      1427  TIP3      H2             -3.2454837335      -15.4424205633        3.4456749569  WT01      1422            0.0000000000
      4343      1428  TIP3      OH2            19.3100860210      -19.6543542206      -16.3046842507  WT01      1423            0.0000000000
      4344      1428  TIP3      H1             19.0561838506      -18.7512642684      -16.1144369455  WT01      1423            0.0000000000
      4345      1428  TIP3      H2             20.1722769314      -19.7514784307      -15.9004250110  WT01      1423            0.0000000000
      4346      1429  TIP3      OH2             0.5263908382       10.1197377436        1.7905669653  WT01      1424            0.0000000000
      4347      1429  TIP3      H1             -0.3345999960        9.7114770754        1.6997384386  WT01      1424            0.0000000000
      4348      1429  TIP3      H2              1.0693778374        9.4461761972        2.2000932439  WT01      1424            0.0000000000
      4349      1430  TIP3      OH2             2.3972436389        6.5295320848      -18.4540922738  WT01      1425            0.0000000000
      4350      1430  TIP3      H1              1.7526292621        7.2069841671      -18.6584517424  WT01      1425            0.0000000000
      4351      1430  TIP3      H2              2.2600640925        5.8582720344      -19.1225408716  WT01      1425            0.0000000000
      4352      1431  TIP3      OH2            -4.1847535871      -10.2894495380       19.7379421150  WT01      1426            0.0000000000
      4353      1431  TIP3      H1             -4.9272170516      -10.6433599458       19.2483226319  WT01      1426            0.0000000000
      4354      1431  TIP3      H2             -4.5820805498       -9.8319205501       20.4789079178  WT01      1426            0.0000000000
      4355      1432  TIP3      OH2            -7.0143317485      -12.0572826285      -16.2023261131  WT01      1427            0.0000000000
      4356      1432  TIP3      H1             -6.6093250914      -12.7921335893      -15.7416793025  WT01      1427            0.0000000000
      4357      1432  TIP3      H2             -6.4115415052      -11.8622423283      -16.9198461581  WT01      1427            0.0000000000
      4358      1433  TIP3      OH2             2.0913420870        0.6564132611        7.3330154700  WT01      1428            0.0000000000
      4359      1433  TIP3      H1              1.7289949644       -0.0766004592        6.8353938672  WT01      1428            0.0000000000
      4360      1433  TIP3      H2              2.0576334094        0.3673968159        8.2449173455  WT01      1428            0.0000000000
      4361      1434  TIP3      OH2             0.5021008102      -16.3239450772      -12.0488856299  WT01      1429            0.0000000000
      4362      1434  TIP3      H1              0.9898572368      -15.7924284296      -12.6780243528  WT01      1429            0.0000000000
      4363      1434  TIP3      H2              1.1451560542      -16.9481011945      -11.7125213846  WT01      1429            0.0000000000
      4364      1435  TIP3      OH2             2.9073878592      -19.5502595042       -3.0473764152  WT01      1430            0.0000000000
      4365      1435  TIP3      H1              2.1978602517      -19.8690360630       -2.4895378268  WT01      1430            0.0000000000
      4366      1435  TIP3      H2              3.6933727351      -19.6344948194       -2.5075949801  WT01      1430            0.0000000000
      4367      1436  TIP3      OH2            -3.5170178249      -11.9747262209       -8.3353860870  WT01      1431            0.0000000000
      4368      1436  TIP3      H1             -4.1094803109      -12.4459035366       -7.7495431466  WT01      1431            0.0000000000
      4369      1436  TIP3      H2             -2.8826509414      -12.6341772313       -8.6163395227  WT01      1431            0.0000000000
      4370      1437  TIP3      OH2             3.9292596781      -18.5043824630       13.6226656059  WT01      1432            0.0000000000
      4371      1437  TIP3      H1              4.0427668285      -19.4367683851       13.4382627046  WT01      1432            0.0000000000
      4372      1437  TIP3      H2              4.5585450460      -18.0678452604       13.0484992472  WT01      1432            0.0000000000
      4373      1438  TIP3      OH2            -8.4660999050       -9.4063655588        0.7224334246  WT01      1433            0.0000000000
      4374      1438  TIP3      H1             -9.1766988315       -8.7678443499        0.6626702033  WT01      1433            0.0000000000
      4375      1438  TIP3      H2             -7.7217432728       -8.9063945029        1.0573870905  WT01      1433            0.0000000000
      4376      1439  TIP3      OH2            -9.0031694660       -6.5927057998       -5.6509107265  WT01      1434            0.0000000000
      4377      1439  TIP3      H1             -9.5862805291       -6.1282983865       -6.2513597698  WT01      1434            0.0000000000
      4378      1439  TIP3      H2             -9.5624857627       -7.2457236289       -5.2302388755  WT01      1434            0.0000000000
      4379      1440  TIP3      OH2            -0.5742994600       17.5569212424       18.2670240392  WT01      1435            0.0000000000
      4380      1440  TIP3      H1             -0.6139696055       16.7789812837       17.7107259973  WT01      1435            0.0000000000
      4381      1440  TIP3      H2             -1.0680908608       17.3167311802       19.0510588583  WT01      1435            0.0000000000
      4382      1441  TIP3      OH2             3.7377646084       -5.0746340119      -19.5264357692  WT01      1436            0.0000000000
      4383      1441  TIP3      H1              4.2736767304       -4.9608448304      -20.3113447006  WT01      1436            0.0000000000
      4384      1441  TIP3      H2              3.9024811919       -4.2875518353      -19.0072037348  WT01      1436            0.0000000000
      4385      1442  TIP3      OH2             5.3760366561       15.2962749397       13.3923097852  WT01      1437            0.0000000000
      4386      1442  TIP3      H1              4.7276712274       14.6964033798       13.7611026722  WT01      1437            0.0000000000
      4387      1442  TIP3      H2              5.0045460954       15.5639612966       12.5517322524  WT01      1437            0.0000000000
      4388      1443  TIP3      OH2           -14.0382985459        4.3725526252      -12.5776414340  WT01      1438            0.0000000000
      4389      1443  TIP3      H1            -14.4721268649        4.2428908625      -13.4209756666  WT01      1438            0.0000000000
      4390      1443  TIP3      H2            -13.5822564357        5.2092154406      -12.6684860169  WT01      1438            0.0000000000
      4391      1444  TIP3      OH2            -8.4136868508      -17.6862160502        9.7930347485  WT01      1439            0.0000000000
      4392      1444  TIP3      H1             -8.8178491207      -18.5451259758        9.6699152520  WT01      1439            0.0000000000
      4393      1444  TIP3      H2             -8.1600930239      -17.4117740581        8.9117836067  WT01      1439            0.0000000000
      4394      1445  TIP3      OH2             6.8578578960       -1.9145213927       11.8475275924  WT01      1440            0.0000000000
      4395      1445  TIP3      H1              6.8050974631       -2.5132684393       11.1025778478  WT01      1440            0.0000000000
      4396      1445  TIP3      H2              7.6009612197       -1.3457763046       11.6461367133  WT01      1440            0.0000000000
      4397      1446  TIP3      OH2             8.1844459606       15.6206863349      -17.1220603635  WT01      1441            0.0000000000
      4398      1446  TIP3      H1              7.9732231759       15.8791734345      -16.2249532542  WT01      1441            0.0000000000
      4399      1446  TIP3      H2              7.5509571280       16.0920695690      -17.6630978452  WT01      1441            0.0000000000
      4400      1447  TIP3      OH2           -14.0188146952       17.0287943694        4.1993030839  WT01      1442            0.0000000000
      4401      1447  TIP3      H1            -14.2700917590       17.9407972375        4.3453935243  WT01      1442            0.0000000000
      4402      1447  TIP3      H2            -13.8889153082       16.9642649006        3.2531562095  WT01      1442            0.0000000000
      4403      1448  TIP3      OH2             7.0720066853        4.7212699263      -17.2270411834  WT01      1443            0.0000000000
      4404      1448  TIP3      H1              6.2888607820        5.2701571188      -17.1865794092  WT01      1443            0.0000000000
      4405      1448  TIP3      H2              7.0205742576        4.2923427490      -18.0812121224  WT01      1443            0.0000000000
      4406      1449  TIP3      OH2           -15.7923832304       -1.5283324056      -18.2955400005  WT01      1444            0.0000000000
      4407      1449  TIP3      H1            -15.7767568211       -0.7450426435      -17.7455902075  WT01      1444            0.0000000000
      4408      1449  TIP3      H2            -16.2169302778       -1.2446758055      -19.1051884111  WT01      1444            0.0000000000
      4409      1450  TIP3      OH2            -8.7042675764        7.4827755088      -14.7680428842  WT01      1445            0.0000000000
      4410      1450  TIP3      H1             -9.4985164306        7.9461099906      -14.5021073159  WT01      1445            0.0000000000
      4411      1450  TIP3      H2             -8.4759319291        6.9437332828      -14.0107264894  WT01      1445            0.0000000000
      4412      1451  TIP3      OH2             0.4119302250      -19.0630920471       -5.0850196396  WT01      1446            0.0000000000
      4413      1451  TIP3      H1              0.6114645150      -18.3301354858       -4.5026172379  WT01      1446            0.0000000000
      4414      1451  TIP3      H2              1.1299931008      -19.0690700058       -5.7179349432  WT01      1446            0.0000000000
      4415      1452  TIP3      OH2             8.5118098323       13.6203706531        0.8344320060  WT01      1447            0.0000000000
      4416      1452  TIP3      H1              7.7642376420       13.3077911800        0.3248618888  WT01      1447            0.0000000000
      4417      1452  TIP3      H2              9.2754032742       13.3959824172        0.3026361935  WT01      1447            0.0000000000
      4418      1453  TIP3      OH2             9.0023574505       11.9727545267      -11.7581918460  WT01      1448            0.0000000000
      4419      1453  TIP3      H1              9.1329453825       12.8307450210      -12.1619627151  WT01      1448            0.0000000000
      4420      1453  TIP3      H2              9.8833829246       11.6814702569      -11.5232888891  WT01      1448            0.0000000000
      4421      1454  TIP3      OH2             9.7200353507       16.6716155630       -3.5199110868  WT01      1449            0.0000000000
      4422      1454  TIP3      H1              9.4843071068       16.8248807266       -4.4348831058  WT01      1449            0.0000000000
      4423      1454  TIP3      H2             10.6726937322       16.5790085987       -3.5297989280  WT01      1449            0.0000000000
      4424      1455  TIP3      OH2             2.2326757805        2.6859567315       -4.4494792996  WT01      1450            0.0000000000
      4425      1455  TIP3      H1              2.1533416646        2.9247781343       -5.3730063684  WT01      1450            0.0000000000
      4426      1455  TIP3      H2              3.1735277824        2.7109303475       -4.2751071686  WT01      1450            0.0000000000
      4427      1456  TIP3      OH2           -12.2103599510       11.3309339689        8.2413712043  WT01      1451            0.0000000000
      4428      1456  TIP3      H1            -12.0081944278       11.3015026666        7.3062269851  WT01      1451            0.0000000000
      4429      1456  TIP3      H2            -11.4772825906       11.8078151535        8.6304903767  WT01      1451            0.0000000000
      4430      1457  TIP3      OH2            -1.6382167962       16.3662939384      -19.3901615028  WT01      1452            0.0000000000
      4431      1457  TIP3      H1             -1.2768669131       16.7424732806      -18.5875737035  WT01      1452            0.0000000000
      4432      1457  TIP3      H2             -2.1976028595       15.6503386165      -19.0889522394  WT01      1452            0.0000000000
      4433      1458  TIP3      OH2             1.8138089517      -19.1440084679        7.3579995104  WT01      1453            0.0000000000
      4434      1458  TIP3      H1              1.4742393643      -18.3428599476        7.7568545650  WT01      1453            0.0000000000
      4435      1458  TIP3      H2              2.4672590352      -18.8401284445        6.7280060733  WT01      1453            0.0000000000
      4436      1459  TIP3      OH2             4.4720642566       10.4418116996       10.7464289583  WT01      1454            0.0000000000
      4437      1459  TIP3      H1              4.6486617810       10.4297020506        9.8057385300  WT01      1454            0.0000000000
      4438      1459  TIP3      H2              5.0105491364        9.7342326034       11.1008265710  WT01      1454            0.0000000000
      4439      1460  TIP3      OH2            10.6641016283        5.1912027782       -9.4220285400  WT01      1455            0.0000000000
      4440      1460  TIP3      H1             10.1040680571        4.6243449277       -8.8916830041  WT01      1455            0.0000000000
      4441      1460  TIP3      H2             10.0640402156        5.6154760278      -10.0353394902  WT01      1455            0.0000000000
      4442      1461  TIP3      OH2            -8.8039380276       18.0885480667       19.0738534132  WT01      1456            0.0000000000
      4443      1461  TIP3      H1             -8.2788625351       18.8639383796       18.8756176925  WT01      1456            0.0000000000
      4444      1461  TIP3      H2             -8.1834441444       17.4711278542       19.4611665077  WT01      1456            0.0000000000
      4445      1462  TIP3      OH2             8.6694923687        0.0628762713      -12.1837628597  WT01      1457            0.0000000000
      4446      1462  TIP3      H1              9.3735715042       -0.4611819576      -11.8018370100  WT01      1457            0.0000000000
      4447      1462  TIP3      H2              8.6995603437        0.8908998907      -11.7044877678  WT01      1457            0.0000000000
      4448      1463  TIP3      OH2            -4.6589414002       11.2465280249       -3.9416953511  WT01      1458            0.0000000000
      4449      1463  TIP3      H1             -4.4866023877       10.4063586252       -3.5166701100  WT01      1458            0.0000000000
      4450      1463  TIP3      H2             -3.8293843712       11.7203375232       -3.8819332729  WT01      1458            0.0000000000
      4451      1464  TIP3      OH2             4.5450714896        7.5109360630       -9.3129481208  WT01      1459            0.0000000000
      4452      1464  TIP3      H1              3.9471574472        6.9543874640       -8.8139648887  WT01      1459            0.0000000000
      4453      1464  TIP3      H2              4.0752539258        8.3389063428       -9.4127904143  WT01      1459            0.0000000000
      4454      1465  TIP3      OH2           -12.8971765826      -10.5867804471       18.1093602681  WT01      1460            0.0000000000
      4455      1465  TIP3      H1            -12.2458826773      -11.0714825802       18.6164222980  WT01      1460            0.0000000000
      4456      1465  TIP3      H2            -12.4256736213       -9.8201154914       17.7835664465  WT01      1460            0.0000000000
      4457      1466  TIP3      OH2             1.3939945979       19.0022689756       -9.2037029002  WT01      1461            0.0000000000
      4458      1466  TIP3      H1              0.6878315733       19.5144911342       -9.5976496655  WT01      1461            0.0000000000
      4459      1466  TIP3      H2              2.0227099423       18.8742587313       -9.9140283215  WT01      1461            0.0000000000
      4460      1467  TIP3      OH2             0.4790189099        9.1661368613      -10.5106954423  WT01      1462            0.0000000000
      4461      1467  TIP3      H1             -0.1466547993        9.1083615201      -11.2327939332  WT01      1462            0.0000000000
      4462      1467  TIP3      H2              1.1364373420        9.7930565584      -10.8123649793  WT01      1462            0.0000000000
      4463      1468  TIP3      OH2            19.0946269954       10.1080160602       13.0562349512  WT01      1463            0.0000000000
      4464      1468  TIP3      H1             19.0757271266       10.6515838122       12.2685746786  WT01      1463            0.0000000000
      4465      1468  TIP3      H2             20.0250307818       10.0134369016       13.2602824654  WT01      1463            0.0000000000
      4466      1469  TIP3      OH2             5.1771657384        9.6246748303        5.2614063143  WT01      1464            0.0000000000
      4467      1469  TIP3      H1              5.8435371619        9.6419646272        5.9483429926  WT01      1464            0.0000000000
      4468      1469  TIP3      H2              5.4574716463       10.2949694743        4.6382165365  WT01      1464            0.0000000000
      4469      1470  TIP3      OH2            -1.0002414905        1.3028500632        7.2757441807  WT01      1465            0.0000000000
      4470      1470  TIP3      H1             -1.3526002891        1.7686767001        6.5174034706  WT01      1465            0.0000000000
      4471      1470  TIP3      H2             -0.7364902149        1.9954337056        7.8815452817  WT01      1465            0.0000000000
      4472      1471  TIP3      OH2             3.0788867318       18.9062118731      -17.8927660219  WT01      1466            0.0000000000
      4473      1471  TIP3      H1              3.3028693545       18.0972480492      -17.4327213205  WT01      1466            0.0000000000
      4474      1471  TIP3      H2              2.5743464203       18.6179202406      -18.6533965628  WT01      1466            0.0000000000
      4475      1472  TIP3      OH2            -7.0038648481       -2.7716597081       10.7902181760  WT01      1467            0.0000000000
      4476      1472  TIP3      H1             -6.8190215924       -1.8356868079       10.8678036899  WT01      1467            0.0000000000
      4477      1472  TIP3      H2             -7.4463489208       -2.8597246910        9.9460119125  WT01      1467            0.0000000000
      4478      1473  TIP3      OH2             4.3462869641       11.1945622674       15.8374406362  WT01      1468            0.0000000000
      4479      1473  TIP3      H1              4.8660137001       11.6128058546       15.1510091154  WT01      1468            0.0000000000
      4480      1473  TIP3      H2              4.9702317146       10.6413735956       16.3074481390  WT01      1468            0.0000000000
      4481      1474  TIP3      OH2             1.2281866949        6.0932621417       12.2230722791  WT01      1469            0.0000000000
      4482      1474  TIP3      H1              1.6647656365        6.8513109766       11.8344946127  WT01      1469            0.0000000000
      4483      1474  TIP3      H2              1.9229150835        5.6299723667       12.6909898590  WT01      1469            0.0000000000
      4484      1475  TIP3      OH2           -19.3305040428       -0.7474878938       -1.1464087019  WT01      1470            0.0000000000
      4485      1475  TIP3      H1            -18.9791128006        0.0648007669       -1.5110223846  WT01      1470            0.0000000000
      4486      1475  TIP3      H2            -19.3442948664       -0.5998480173       -0.2007639001  WT01      1470            0.0000000000
      4487      1476  TIP3      OH2            11.3863190438       13.6860820958       -3.3715153338  WT01      1471            0.0000000000
      4488      1476  TIP3      H1             10.5003701990       14.0312711204       -3.4818375556  WT01      1471            0.0000000000
      4489      1476  TIP3      H2             11.8958336655       14.1070100074       -4.0639359824  WT01      1471            0.0000000000
      4490      1477  TIP3      OH2            -2.0904384094      -16.2654471481      -12.5626731545  WT01      1472            0.0000000000
      4491      1477  TIP3      H1             -2.1337641929      -15.3120968846      -12.4886598948  WT01      1472            0.0000000000
      4492      1477  TIP3      H2             -1.1795509321      -16.4805788013      -12.3620885424  WT01      1472            0.0000000000
      4493      1478  TIP3      OH2           -14.9660596517      -12.4288207165       11.0763323732  WT01      1473            0.0000000000
      4494      1478  TIP3      H1            -14.0264286010      -12.6102373825       11.0966619793  WT01      1473            0.0000000000
      4495      1478  TIP3      H2            -15.0676429980      -11.7651913911       10.3940503543  WT01      1473            0.0000000000
      4496      1479  TIP3      OH2            -5.4912905782      -18.7430296770       12.9595721721  WT01      1474            0.0000000000
      4497      1479  TIP3      H1             -5.3125843139      -19.2149403829       12.1461865515  WT01      1474            0.0000000000
      4498      1479  TIP3      H2             -5.1429286768      -17.8643262681       12.8087208687  WT01      1474            0.0000000000
      4499      1480  TIP3      OH2            -2.8763708816       15.5687640991        5.9868730777  WT01      1475            0.0000000000
      4500      1480  TIP3      H1             -2.9633880589       16.5001699607        6.1897103104  WT01      1475            0.0000000000
      4501      1480  TIP3      H2             -1.9334876198       15.4053528808        6.0092279268  WT01      1475            0.0000000000
      4502      1481  TIP3      OH2            12.6519428234       11.4493056379       11.2067785851  WT01      1476            0.0000000000
      4503      1481  TIP3      H1             13.5721975243       11.5512129909       11.4496324257  WT01      1476            0.0000000000
      4504      1481  TIP3      H2             12.1879954343       12.0842787034       11.7524834845  WT01      1476            0.0000000000
      4505      1482  TIP3      OH2            -9.0969008560        0.1159155266        7.6376940033  WT01      1477            0.0000000000
      4506      1482  TIP3      H1             -8.5589276846        0.9022676929        7.7297100265  WT01      1477            0.0000000000
      4507      1482  TIP3      H2             -8.9915850726       -0.1410725278        6.7216713307  WT01      1477            0.0000000000
      4508      1483  TIP3      OH2             1.8107075277      -16.7563659647       13.3006847193  WT01      1478            0.0000000000
      4509      1483  TIP3      H1              2.5200865858      -17.3990166568       13.2970445520  WT01      1478            0.0000000000
      4510      1483  TIP3      H2              2.2549887097      -15.9085279090       13.3047680522  WT01      1478            0.0000000000
      4511      1484  TIP3      OH2            10.2970099366       -0.1022389256        7.8019482769  WT01      1479            0.0000000000
      4512      1484  TIP3      H1             11.0018144784       -0.0095013703        7.1609474073  WT01      1479            0.0000000000
      4513      1484  TIP3      H2             10.2550948834       -1.0421285439        7.9782504177  WT01      1479            0.0000000000
      4514      1485  TIP3      OH2            10.9183901816       10.7588000063      -17.0304811019  WT01      1480            0.0000000000
      4515      1485  TIP3      H1             10.9774245005       10.1466332476      -17.7639649939  WT01      1480            0.0000000000
      4516      1485  TIP3      H2             11.5999488573       11.4080300447      -17.2042911699  WT01      1480            0.0000000000
      4517      1486  TIP3      OH2            -1.9313194996      -15.4595582183       -7.0337015762  WT01      1481            0.0000000000
      4518      1486  TIP3      H1             -1.0553024865      -15.4375189158       -6.6485519002  WT01      1481            0.0000000000
      4519      1486  TIP3      H2             -1.9791041265      -14.6660239757       -7.5668543183  WT01      1481            0.0000000000
      4520      1487  TIP3      OH2            -4.8047659653      -15.1221261261       19.0453273411  WT01      1482            0.0000000000
      4521      1487  TIP3      H1             -4.6644581833      -16.0559227875       18.8885812648  WT01      1482            0.0000000000
      4522      1487  TIP3      H2             -5.6641609456      -14.9413377407       18.6645549173  WT01      1482            0.0000000000
      4523      1488  TIP3      OH2            12.6207377663       16.4432068671       -2.5263276266  WT01      1483            0.0000000000
      4524      1488  TIP3      H1             12.5375386727       15.7991207595       -3.2295081211  WT01      1483            0.0000000000
      4525      1488  TIP3      H2             13.3071462179       17.0389716934       -2.8265600704  WT01      1483            0.0000000000
      4526      1489  TIP3      OH2             5.1040674244       14.2453034351        5.4320874003  WT01      1484            0.0000000000
      4527      1489  TIP3      H1              5.9006519634       14.0824735243        5.9372322343  WT01      1484            0.0000000000
      4528      1489  TIP3      H2              5.0867957090       15.1946020291        5.3105732922  WT01      1484            0.0000000000
      4529      1490  TIP3      OH2           -15.0522500261        4.9876256716      -17.5689709940  WT01      1485            0.0000000000
      4530      1490  TIP3      H1            -15.5315852866        5.7325282026      -17.2062179948  WT01      1485            0.0000000000
      4531      1490  TIP3      H2            -15.5683929693        4.7168709572      -18.3282602392  WT01      1485            0.0000000000
      4532      1491  TIP3      OH2            -2.2079204056      -18.8430693208        3.5154757306  WT01      1486            0.0000000000
      4533      1491  TIP3      H1             -2.7434881333      -19.5024753141        3.0743603761  WT01      1486            0.0000000000
      4534      1491  TIP3      H2             -1.9036299077      -18.2707014372        2.8111788402  WT01      1486            0.0000000000
      4535      1492  TIP3      OH2             0.5445459360      -17.5342334413       10.7783020433  WT01      1487            0.0000000000
      4536      1492  TIP3      H1              1.1045214097      -16.7579457324       10.7843578491  WT01      1487            0.0000000000
      4537      1492  TIP3      H2              1.0215605787      -18.1783248826       11.3015945589  WT01      1487            0.0000000000
      4538      1493  TIP3      OH2           -18.1545686468        9.8171190788       13.9173041497  WT01      1488            0.0000000000
      4539      1493  TIP3      H1            -17.6349971970        9.0428328727       13.7010677268  WT01      1488            0.0000000000
      4540      1493  TIP3      H2            -18.6178810935        9.5786622194       14.7202435708  WT01      1488            0.0000000000
      4541      1494  TIP3      OH2             0.9138172784       -3.2844822074        9.8731247683  WT01      1489            0.0000000000
      4542      1494  TIP3      H1              0.5978709098       -4.1702141699        9.6945509912  WT01      1489            0.0000000000
      4543      1494  TIP3      H2              1.7181303890       -3.2085352501        9.3597591180  WT01      1489            0.0000000000
      4544      1495  TIP3      OH2           -15.5293144048       17.0195901466       14.8924214529  WT01      1490            0.0000000000
      4545      1495  TIP3      H1            -14.7782232776       16.4595623731       15.0885408619  WT01      1490            0.0000000000
      4546      1495  TIP3      H2            -15.3196805171       17.8562710528       15.3074521811  WT01      1490            0.0000000000
      4547      1496  TIP3      OH2            -6.5794564571       19.5821141246       14.9920398620  WT01      1491            0.0000000000
      4548      1496  TIP3      H1             -6.0731682635       20.2394414796       14.5147298743  WT01      1491            0.0000000000
      4549      1496  TIP3      H2             -6.5781652148       18.8154724773       14.4188987551  WT01      1491            0.0000000000
      4550      1497  TIP3      OH2            -5.0777316391       10.1874761757       13.1003104185  WT01      1492            0.0000000000
      4551      1497  TIP3      H1             -5.3599729399       10.6267216349       13.9025791301  WT01      1492            0.0000000000
      4552      1497  TIP3      H2             -4.6581357826       10.8760897812       12.5845755732  WT01      1492            0.0000000000
      4553      1498  TIP3      OH2           -16.9632107582        7.4912488688       13.0881179048  WT01      1493            0.0000000000
      4554      1498  TIP3      H1            -17.2921910640        6.6412473964       13.3805239006  WT01      1493            0.0000000000
      4555      1498  TIP3      H2            -16.0649309012        7.5269151959       13.4168321008  WT01      1493            0.0000000000
      4556      1499  TIP3      OH2            -7.5076731939       11.4533832560       19.3017951963  WT01      1494            0.0000000000
      4557      1499  TIP3      H1             -7.5297278444       12.2534081927       18.7767185314  WT01      1494            0.0000000000
      4558      1499  TIP3      H2             -8.0369556043       10.8273451562       18.8076613696  WT01      1494            0.0000000000
      4559      1500  TIP3      OH2            -4.7296140307       18.3246288802      -16.1659715499  WT01      1495            0.0000000000
      4560      1500  TIP3      H1             -3.8007711792       18.5093370875      -16.0268110445  WT01      1495            0.0000000000
      4561      1500  TIP3      H2             -5.0750108140       19.1213145822      -16.5687429063  WT01      1495            0.0000000000
      4562      1501  TIP3      OH2            -5.9113340354        6.1702505417       13.9161105372  WT01      1496            0.0000000000
      4563      1501  TIP3      H1             -6.5794810753        6.7731159393       14.2422464848  WT01      1496            0.0000000000
      4564      1501  TIP3      H2             -5.4727485413        6.6539417673       13.2161695585  WT01      1496            0.0000000000
      4565      1502  TIP3      OH2            -9.5996256703        8.1668707658        9.2483462773  WT01      1497            0.0000000000
      4566      1502  TIP3      H1             -9.3371927971        8.8546311961        8.6365077458  WT01      1497            0.0000000000
      4567      1502  TIP3      H2             -8.7997950354        7.9563222876        9.7301886840  WT01      1497            0.0000000000
      4568      1503  TIP3      OH2            10.8230284132      -17.3144922895       10.3052742635  WT01      1498            0.0000000000
      4569      1503  TIP3      H1             10.6781915493      -18.2382752227       10.1006302161  WT01      1498            0.0000000000
      4570      1503  TIP3      H2             10.0486930252      -17.0550319976       10.8045906711  WT01      1498            0.0000000000
      4571      1504  TIP3      OH2            13.9118459227       12.7645728275       13.7244592392  WT01      1499            0.0000000000
      4572      1504  TIP3      H1             13.6107220128       12.1846180150       14.4238937375  WT01      1499            0.0000000000
      4573      1504  TIP3      H2             14.7628535142       13.0824971180       14.0260252119  WT01      1499            0.0000000000
      4574      1505  TIP3      OH2           -16.9831285313       14.0510178138       10.6244100830  WT01      1500            0.0000000000
      4575      1505  TIP3      H1            -17.2533866722       14.9635469235       10.7267964700  WT01      1500            0.0000000000
      4576      1505  TIP3      H2            -17.6622627917       13.5477538607       11.0735580106  WT01      1500            0.0000000000
      4577      1506  TIP3      OH2           -15.7656054271      -10.5208496175        9.2122369535  WT01      1501            0.0000000000
      4578      1506  TIP3      H1            -16.1306344243       -9.6465421896        9.0759572274  WT01      1501            0.0000000000
      4579      1506  TIP3      H2            -15.1930391481      -10.6620600208        8.4582745611  WT01      1501            0.0000000000
      4580      1507  TIP3      OH2           -12.7044044417       16.2711089579       15.4570050631  WT01      1502            0.0000000000
      4581      1507  TIP3      H1            -12.3551133780       15.4301495517       15.1620222822  WT01      1502            0.0000000000
      4582      1507  TIP3      H2            -12.8394389382       16.1581519347       16.3978760461  WT01      1502            0.0000000000
      4583      1508  TIP3      OH2            17.4906629199      -12.6887456317       18.6100642083  WT01      1503            0.0000000000
      4584      1508  TIP3      H1             16.7363461238      -12.1521929974       18.3664471874  WT01      1503            0.0000000000
      4585      1508  TIP3      H2             17.7822220873      -13.0807293162       17.7869154646  WT01      1503            0.0000000000
      4586      1509  TIP3      OH2            19.3085580085       16.6455172467        9.5332364814  WT01      1504            0.0000000000
      4587      1509  TIP3      H1             19.8127216458       16.6205780125        8.7199537061  WT01      1504            0.0000000000
      4588      1509  TIP3      H2             18.3954384620       16.5911207296        9.2513047100  WT01      1504            0.0000000000
      4589      1510  TIP3      OH2            -1.9725149532       -7.8570258899        1.3352204705  WT01      1505            0.0000000000
      4590      1510  TIP3      H1             -2.1173280942       -7.4050651635        0.5039609040  WT01      1505            0.0000000000
      4591      1510  TIP3      H2             -1.5958622356       -7.1896633241        1.9087984924  WT01      1505            0.0000000000
      4592      1511  TIP3      OH2             2.3680701421       12.2782414414        1.9172474722  WT01      1506            0.0000000000
      4593      1511  TIP3      H1              2.1862795441       13.1601169683        2.2420236177  WT01      1506            0.0000000000
      4594      1511  TIP3      H2              1.6916938842       11.7312335315        2.3166586830  WT01      1506            0.0000000000
      4595      1512  TIP3      OH2            -1.4034594271       -1.7787986298        9.3108913003  WT01      1507            0.0000000000
      4596      1512  TIP3      H1             -0.4998125293       -2.0806064359        9.4034447627  WT01      1507            0.0000000000
      4597      1512  TIP3      H2             -1.5495496149       -1.7449939750        8.3655095185  WT01      1507            0.0000000000
      4598      1513  TIP3      OH2             8.0884611268       16.4787156071        4.0250282951  WT01      1508            0.0000000000
      4599      1513  TIP3      H1              8.0956074635       15.5243962218        4.0988879709  WT01      1508            0.0000000000
      4600      1513  TIP3      H2              7.1884467998       16.7288539515        4.2339226006  WT01      1508            0.0000000000
      4601      1514  TIP3      OH2           -18.2706810521        3.4630587374        3.2237675903  WT01      1509            0.0000000000
      4602      1514  TIP3      H1            -19.0288119404        3.2857425198        2.6669657170  WT01      1509            0.0000000000
      4603      1514  TIP3      H2            -17.7602406770        4.1090960429        2.7355891042  WT01      1509            0.0000000000
      4604      1515  TIP3      OH2            15.7915394165        5.3285883450      -17.5141768910  WT01      1510            0.0000000000
      4605      1515  TIP3      H1             14.8742659747        5.0560795447      -17.4900895977  WT01      1510            0.0000000000
      4606      1515  TIP3      H2             15.7571931513        6.2746633225      -17.6555780298  WT01      1510            0.0000000000
      4607      1516  TIP3      OH2            13.0698627087       14.1068557352        0.4550011430  WT01      1511            0.0000000000
      4608      1516  TIP3      H1             14.0069495332       14.1586978753        0.2668190854  WT01      1511            0.0000000000
      4609      1516  TIP3      H2             12.7915065498       15.0186630769        0.5407742825  WT01      1511            0.0000000000
      4610      1517  TIP3      OH2           -11.3468975503      -13.0944168429       17.8169650863  WT01      1512            0.0000000000
      4611      1517  TIP3      H1            -11.3298492948      -13.9823737844       18.1739995917  WT01      1512            0.0000000000
      4612      1517  TIP3      H2            -11.2020324352      -13.2105037319       16.8779391316  WT01      1512            0.0000000000
      4613      1518  TIP3      OH2             3.0721295858       -5.7709373648        7.6717985817  WT01      1513            0.0000000000
      4614      1518  TIP3      H1              3.4933274683       -6.3918871264        7.0774539440  WT01      1513            0.0000000000
      4615      1518  TIP3      H2              3.6569738435       -5.7284333834        8.4283581740  WT01      1513            0.0000000000
      4616      1519  TIP3      OH2             5.2126422791       14.5461187183        1.5834264324  WT01      1514            0.0000000000
      4617      1519  TIP3      H1              5.9823129099       14.3856791038        2.1294100046  WT01      1514            0.0000000000
      4618      1519  TIP3      H2              5.4314579720       14.1527979835        0.7386481756  WT01      1514            0.0000000000
      4619      1520  TIP3      OH2           -16.4586729778        2.7170973818       18.3482129124  WT01      1515            0.0000000000
      4620      1520  TIP3      H1            -16.4113222997        1.8053066969       18.6356628578  WT01      1515            0.0000000000
      4621      1520  TIP3      H2            -16.6698350464        2.6642109582       17.4160941335  WT01      1515            0.0000000000
      4622      1521  TIP3      OH2            17.7931388410       -9.9215596530       15.5195122553  WT01      1516            0.0000000000
      4623      1521  TIP3      H1             18.3194150386       -9.7929072418       16.3086343828  WT01      1516            0.0000000000
      4624      1521  TIP3      H2             18.1127491668      -10.7444245274       15.1494116619  WT01      1516            0.0000000000
      4625      1522  TIP3      OH2            -8.6377055904       18.8410415736        9.9513315301  WT01      1517            0.0000000000
      4626      1522  TIP3      H1             -9.0259690145       19.0801670267       10.7929385300  WT01      1517            0.0000000000
      4627      1522  TIP3      H2             -8.2289691681       17.9899371576       10.1087723798  WT01      1517            0.0000000000
      4628      1523  TIP3      OH2            -2.3448268509       -6.9688210850       12.5663605534  WT01      1518            0.0000000000
      4629      1523  TIP3      H1             -1.9998918692       -6.1564876933       12.9369899237  WT01      1518            0.0000000000
      4630      1523  TIP3      H2             -2.7984255560       -6.6952416241       11.7690937823  WT01      1518            0.0000000000
      4631      1524  TIP3      OH2            -5.3313545346       18.4251894484       -0.4852861422  WT01      1519            0.0000000000
      4632      1524  TIP3      H1             -4.7366951219       18.5889548667       -1.2172648862  WT01      1519            0.0000000000
      4633      1524  TIP3      H2             -6.2000919815       18.6291555906       -0.8315878492  WT01      1519            0.0000000000
      4634      1525  TIP3      OH2            14.7201191371      -11.4988210136       18.7159587532  WT01      1520            0.0000000000
      4635      1525  TIP3      H1             13.9313643417      -11.0686421911       18.3857408486  WT01      1520            0.0000000000
      4636      1525  TIP3      H2             15.2353750983      -10.7910145496       19.1029382295  WT01      1520            0.0000000000
      4637      1526  TIP3      OH2             6.3354448672       -1.7192735634        4.8542833139  WT01      1521            0.0000000000
      4638      1526  TIP3      H1              6.1782255215       -1.7029879475        5.7983429874  WT01      1521            0.0000000000
      4639      1526  TIP3      H2              6.0418001176       -0.8615207675        4.5472577233  WT01      1521            0.0000000000
      4640      1527  TIP3      OH2            11.7020571871       13.6116294239        8.4702903960  WT01      1522            0.0000000000
      4641      1527  TIP3      H1             11.9605037791       14.4866481529        8.7597370993  WT01      1522            0.0000000000
      4642      1527  TIP3      H2             12.4748492593       13.0689964916        8.6270504833  WT01      1522            0.0000000000
      4643      1528  TIP3      OH2            11.3573569549       17.8067795640      -12.6722329564  WT01      1523            0.0000000000
      4644      1528  TIP3      H1             11.0009306923       18.6263468796      -13.0150179408  WT01      1523            0.0000000000
      4645      1528  TIP3      H2             10.8214471489       17.1243782963      -13.0764123730  WT01      1523            0.0000000000
      4646      1529  TIP3      OH2            -7.1931373097       -6.2011583450       -0.3009447454  WT01      1524            0.0000000000
      4647      1529  TIP3      H1             -6.9511599335       -6.7979088862        0.4072695950  WT01      1524            0.0000000000
      4648      1529  TIP3      H2             -7.4386626156       -6.7760492597       -1.0258237500  WT01      1524            0.0000000000
      4649      1530  TIP3      OH2             3.0622720219        7.8934266084       14.4176936466  WT01      1525            0.0000000000
      4650      1530  TIP3      H1              3.9003124543        7.5060069674       14.6703318593  WT01      1525            0.0000000000
      4651      1530  TIP3      H2              2.5776535428        7.1740669530       14.0128499398  WT01      1525            0.0000000000
      4652      1531  TIP3      OH2            -7.4681375085      -19.2124264648        6.0648175040  WT01      1526            0.0000000000
      4653      1531  TIP3      H1             -8.0261191651      -19.9899492373        6.0834352407  WT01      1526            0.0000000000
      4654      1531  TIP3      H2             -6.6666612238      -19.4814045726        6.5137254607  WT01      1526            0.0000000000
      4655      1532  TIP3      OH2             8.7373211262       13.3015767366       17.8263334909  WT01      1527            0.0000000000
      4656      1532  TIP3      H1              9.2224925620       12.6907655499       17.2715811290  WT01      1527            0.0000000000
      4657      1532  TIP3      H2              8.5615276766       12.8095889805       18.6283787028  WT01      1527            0.0000000000
      4658      1533  TIP3      OH2            -3.8348405101        6.8575396110       19.7787178441  WT01      1528            0.0000000000
      4659      1533  TIP3      H1             -4.0786369818        6.1021937723       19.2436965778  WT01      1528            0.0000000000
      4660      1533  TIP3      H2             -3.0798003566        6.5589053792       20.2856337871  WT01      1528            0.0000000000
      4661      1534  TIP3      OH2             7.9447154376       14.5548961524        8.2718590863  WT01      1529            0.0000000000
      4662      1534  TIP3      H1              8.4619549337       13.9420635456        8.7944787480  WT01      1529            0.0000000000
      4663      1534  TIP3      H2              7.5851361242       15.1707444763        8.9103458680  WT01      1529            0.0000000000
      4664      1535  TIP3      OH2            -2.9376629933      -18.3133260475       17.8619071430  WT01      1530            0.0000000000
      4665      1535  TIP3      H1             -3.6579915104      -18.7042769563       18.3563927601  WT01      1530            0.0000000000
      4666      1535  TIP3      H2             -2.1746978871      -18.8451789756       18.0882885042  WT01      1530            0.0000000000
      4667      1536  TIP3      OH2             4.7436828057       18.8550390675       12.3248261034  WT01      1531            0.0000000000
      4668      1536  TIP3      H1              4.7309648679       18.1036062955       11.7320201871  WT01      1531            0.0000000000
      4669      1536  TIP3      H2              4.7395274843       18.4696079929       13.2009867228  WT01      1531            0.0000000000
      4670      1537  TIP3      OH2            -6.4173900449      -14.3069919280       -2.4202499978  WT01      1532            0.0000000000
      4671      1537  TIP3      H1             -5.5382769174      -14.4116768534       -2.0563365651  WT01      1532            0.0000000000
      4672      1537  TIP3      H2             -6.3100845869      -13.6713796705       -3.1278617613  WT01      1532            0.0000000000
      4673      1538  TIP3      OH2            -9.0047122820       18.7917178283       -6.9815812714  WT01      1533            0.0000000000
      4674      1538  TIP3      H1             -9.7657259247       18.2190036152       -7.0769147742  WT01      1533            0.0000000000
      4675      1538  TIP3      H2             -8.3445458057       18.4121334043       -7.5615189402  WT01      1533            0.0000000000
      4676      1539  TIP3      OH2             0.8424640387      -12.1688838216        4.4006049836  WT01      1534            0.0000000000
      4677      1539  TIP3      H1              0.5888817244      -12.8245203629        3.7509369555  WT01      1534            0.0000000000
      4678      1539  TIP3      H2              1.3589777829      -11.5306840185        3.9085212769  WT01      1534            0.0000000000
      4679      1540  TIP3      OH2             7.8267551383       16.7108971482      -14.7184211498  WT01      1535            0.0000000000
      4680      1540  TIP3      H1              8.3731255686       16.2461736717      -14.0845889525  WT01      1535            0.0000000000
      4681      1540  TIP3      H2              6.9317660956       16.4513416518      -14.4996578785  WT01      1535            0.0000000000
      4682      1541  TIP3      OH2             7.1207481567      -10.6617676020       -9.7242897741  WT01      1536            0.0000000000
      4683      1541  TIP3      H1              6.3865681510      -10.9245118105      -10.2794267042  WT01      1536            0.0000000000
      4684      1541  TIP3      H2              7.6845310689      -10.1455735255      -10.3004185048  WT01      1536            0.0000000000
      4685      1542  TIP3      OH2            16.4165875559      -18.0003296806      -14.6076102568  WT01      1537            0.0000000000
      4686      1542  TIP3      H1             16.6694472365      -18.9187126867      -14.5134484443  WT01      1537            0.0000000000
      4687      1542  TIP3      H2             16.3549435713      -17.8641095679      -15.5530603671  WT01      1537            0.0000000000
      4688      1543  TIP3      OH2            19.4963862424      -13.8078564012       11.7120268585  WT01      1538            0.0000000000
      4689      1543  TIP3      H1             19.4130869587      -12.9376029951       11.3222165848  WT01      1538            0.0000000000
      4690      1543  TIP3      H2             20.4115115027      -14.0487472171       11.5679810889  WT01      1538            0.0000000000
      4691      1544  TIP3      OH2           -17.6677393861      -15.2647101714       14.3813145276  WT01      1539            0.0000000000
      4692      1544  TIP3      H1            -17.9909558964      -14.3651715587       14.4322378306  WT01      1539            0.0000000000
      4693      1544  TIP3      H2            -16.7475305575      -15.1754005005       14.1333804527  WT01      1539            0.0000000000
      4694      1545  TIP3      OH2             1.9331472703       14.7462468865       16.8972603415  WT01      1540            0.0000000000
      4695      1545  TIP3      H1              0.9796991889       14.6619903873       16.9055915708  WT01      1540            0.0000000000
      4696      1545  TIP3      H2              2.1458342022       14.9764219996       15.9928182497  WT01      1540            0.0000000000
      4697      1546  TIP3      OH2             9.4105854746       -2.2643370934       -2.1079863559  WT01      1541            0.0000000000
      4698      1546  TIP3      H1              9.3697459428       -2.6775144323       -1.2455198752  WT01      1541            0.0000000000
      4699      1546  TIP3      H2             10.1923768818       -2.6368321357       -2.5157625814  WT01      1541            0.0000000000
      4700      1547  TIP3      OH2            12.9494270737      -17.2517309143      -12.4169609908  WT01      1542            0.0000000000
      4701      1547  TIP3      H1             13.8635984666      -17.3130584556      -12.6940194830  WT01      1542            0.0000000000
      4702      1547  TIP3      H2             12.9935545274      -17.1364871617      -11.4677489722  WT01      1542            0.0000000000
      4703      1548  TIP3      OH2             0.2171382474       12.2665795620       11.4870849489  WT01      1543            0.0000000000
      4704      1548  TIP3      H1              1.1628703491       12.1391797908       11.5618639642  WT01      1543            0.0000000000
      4705      1548  TIP3      H2             -0.0878867274       12.3363514255       12.3916972763  WT01      1543            0.0000000000
      4706      1549  TIP3      OH2            13.7726676658      -12.2283522612        0.3087275513  WT01      1544            0.0000000000
      4707      1549  TIP3      H1             14.7166434824      -12.0842121890        0.3747965179  WT01      1544            0.0000000000
      4708      1549  TIP3      H2             13.6671594940      -13.1749013731        0.4043550343  WT01      1544            0.0000000000
      4709      1550  TIP3      OH2            12.8309298176       -1.6624152993       -8.1645865450  WT01      1545            0.0000000000
      4710      1550  TIP3      H1             13.4321730376       -1.0586627382       -8.6007301526  WT01      1545            0.0000000000
      4711      1550  TIP3      H2             12.8219475271       -2.4385715484       -8.7247049312  WT01      1545            0.0000000000
      4712      1551  TIP3      OH2             6.8329981714       -3.0834381942        1.2500167126  WT01      1546            0.0000000000
      4713      1551  TIP3      H1              7.3063216606       -2.3422569891        1.6279679089  WT01      1546            0.0000000000
      4714      1551  TIP3      H2              7.5191548843       -3.6931867013        0.9786727715  WT01      1546            0.0000000000
      4715      1552  TIP3      OH2           -18.7043307591      -11.6874436461       -2.6699372514  WT01      1547            0.0000000000
      4716      1552  TIP3      H1            -18.5575527203      -10.7645092207       -2.4628622294  WT01      1547            0.0000000000
      4717      1552  TIP3      H2            -17.9991998434      -11.9122859948       -3.2769530016  WT01      1547            0.0000000000
      4718      1553  TIP3      OH2            19.0042767749      -16.9819551667      -15.5735075237  WT01      1548            0.0000000000
      4719      1553  TIP3      H1             18.1464813865      -16.7850433500      -15.1971504870  WT01      1548            0.0000000000
      4720      1553  TIP3      H2             19.6204347206      -16.8366437265      -14.8555480663  WT01      1548            0.0000000000
      4721      1554  TIP3      OH2             9.4430976339      -14.9946378409       -8.6629470111  WT01      1549            0.0000000000
      4722      1554  TIP3      H1              8.8124945885      -14.3589224511       -9.0012332113  WT01      1549            0.0000000000
      4723      1554  TIP3      H2              9.8314019234      -14.5651859450       -7.9006985877  WT01      1549            0.0000000000
      4724      1555  TIP3      OH2           -17.9239216690       -0.6591225792      -14.7434598954  WT01      1550            0.0000000000
      4725      1555  TIP3      H1            -18.2845193658       -0.7954589508      -15.6195954476  WT01      1550            0.0000000000
      4726      1555  TIP3      H2            -18.2336478189        0.2101186205      -14.4890561614  WT01      1550            0.0000000000
      4727      1556  TIP3      OH2           -16.4913178594        6.0168537262       -8.6445933515  WT01      1551            0.0000000000
      4728      1556  TIP3      H1            -16.8633299982        6.8981344655       -8.6101980294  WT01      1551            0.0000000000
      4729      1556  TIP3      H2            -17.2516683903        5.4368184231       -8.6853110204  WT01      1551            0.0000000000
      4730      1557  TIP3      OH2            19.1697310143       16.5525743155       18.1328463527  WT01      1552            0.0000000000
      4731      1557  TIP3      H1             18.5944816254       16.1777448059       17.4658959870  WT01      1552            0.0000000000
      4732      1557  TIP3      H2             19.9947358066       16.7138767063       17.6750467868  WT01      1552            0.0000000000
      4733      1558  TIP3      OH2            17.9388134200        2.4589819040       -5.1185859438  WT01      1553            0.0000000000
      4734      1558  TIP3      H1             17.6309608571        2.6857790481       -4.2410771599  WT01      1553            0.0000000000
      4735      1558  TIP3      H2             18.6575567047        1.8446573963       -4.9694373567  WT01      1553            0.0000000000
      4736      1559  TIP3      OH2             1.9247304168       10.6316716448       14.1594063302  WT01      1554            0.0000000000
      4737      1559  TIP3      H1              1.1628080027       10.4667104944       14.7148285703  WT01      1554            0.0000000000
      4738      1559  TIP3      H2              2.4845829682        9.8657165817       14.2863306109  WT01      1554            0.0000000000
      4739      1560  TIP3      OH2            19.7368118558       18.7691068489       -5.3399665314  WT01      1555            0.0000000000
      4740      1560  TIP3      H1             19.3072340303       19.0291761529       -6.1548644759  WT01      1555            0.0000000000
      4741      1560  TIP3      H2             20.4045522668       18.1391614520       -5.6111184288  WT01      1555            0.0000000000
      4742      1561  TIP3      OH2            16.2201903905      -16.3966061875       -3.0007267221  WT01      1556            0.0000000000
      4743      1561  TIP3      H1             15.7581336713      -16.4879770144       -2.1674279934  WT01      1556            0.0000000000
      4744      1561  TIP3      H2             16.5021317392      -15.4820692942       -3.0197834223  WT01      1556            0.0000000000
      4745      1562  TIP3      OH2            -0.2850714999      -19.7072417521       17.3444789609  WT01      1557            0.0000000000
      4746      1562  TIP3      H1             -0.2898738180      -20.5381443654       17.8196732327  WT01      1557            0.0000000000
      4747      1562  TIP3      H2              0.0370967267      -19.9318622624       16.4715613982  WT01      1557            0.0000000000
      4748      1563  TIP3      OH2           -18.7895502819       18.1978329239       -2.6123379909  WT01      1558            0.0000000000
      4749      1563  TIP3      H1            -19.3327686979       18.2413744717       -3.3992621913  WT01      1558            0.0000000000
      4750      1563  TIP3      H2            -17.9567874749       18.5909160118       -2.8735344769  WT01      1558            0.0000000000
      4751      1564  TIP3      OH2           -15.3618040627       -2.9574709281       -4.4144280007  WT01      1559            0.0000000000
      4752      1564  TIP3      H1            -15.1714950490       -2.0309934359       -4.5615801217  WT01      1559            0.0000000000
      4753      1564  TIP3      H2            -15.9479209415       -2.9648285106       -3.6576951010  WT01      1559            0.0000000000
      4754      1565  TIP3      OH2           -15.2463647796       13.1717081511        2.0664746719  WT01      1560            0.0000000000
      4755      1565  TIP3      H1            -15.2565220467       12.4161852698        1.4788405878  WT01      1560            0.0000000000
      4756      1565  TIP3      H2            -16.0258175066       13.6728344038        1.8265627373  WT01      1560            0.0000000000
      4757      1566  TIP3      OH2            -4.3094778389      -16.4305229236       15.9867017816  WT01      1561            0.0000000000
      4758      1566  TIP3      H1             -3.7714361248      -16.5244200481       15.2006189266  WT01      1561            0.0000000000
      4759      1566  TIP3      H2             -3.7713802849      -16.7929053288       16.6905212371  WT01      1561            0.0000000000
      4760      1567  TIP3      OH2           -16.3244479638       -2.3147032953      -10.8518522405  WT01      1562            0.0000000000
      4761      1567  TIP3      H1            -16.9665935626       -2.5684836361      -10.1889220936  WT01      1562            0.0000000000
      4762      1567  TIP3      H2            -16.4755963494       -1.3791722664      -10.9866397419  WT01      1562            0.0000000000
      4763      1568  TIP3      OH2            -2.7269887762      -14.2959321138      -17.7480825022  WT01      1563            0.0000000000
      4764      1568  TIP3      H1             -2.0561182158      -14.9786924514      -17.7497628177  WT01      1563            0.0000000000
      4765      1568  TIP3      H2             -2.3806680329      -13.6177647766      -18.3280676888  WT01      1563            0.0000000000
      4766      1569  TIP3      OH2             0.5497266177      -19.4331398551       14.5663855662  WT01      1564            0.0000000000
      4767      1569  TIP3      H1             -0.2546047936      -19.1179651612       14.1541384265  WT01      1564            0.0000000000
      4768      1569  TIP3      H2              1.1055199941      -18.6566677831       14.6328434867  WT01      1564            0.0000000000
      4769      1570  TIP3      OH2            11.3855071743      -18.1026782895       -7.8944392171  WT01      1565            0.0000000000
      4770      1570  TIP3      H1             10.9449482479      -18.2613507217       -8.7292821381  WT01      1565            0.0000000000
      4771      1570  TIP3      H2             11.4604049764      -18.9689345929       -7.4941616297  WT01      1565            0.0000000000
      4772      1571  TIP3      OH2            19.1932379756      -13.2507300596       16.2829507772  WT01      1566            0.0000000000
      4773      1571  TIP3      H1             19.9341693089      -12.7236634503       16.5820383225  WT01      1566            0.0000000000
      4774      1571  TIP3      H2             18.9377941568      -12.8546964709       15.4498015330  WT01      1566            0.0000000000
      4775      1572  TIP3      OH2             4.7683883555      -19.1605020603        2.4791765946  WT01      1567            0.0000000000
      4776      1572  TIP3      H1              5.4565122734      -18.9775210331        3.1188915533  WT01      1567            0.0000000000
      4777      1572  TIP3      H2              4.8526592267      -18.4623780994        1.8297513361  WT01      1567            0.0000000000
      4778      1573  TIP3      OH2            10.2583308152       -9.7732521448       -4.5524600952  WT01      1568            0.0000000000
      4779      1573  TIP3      H1             10.0015214882       -9.4866566691       -5.4288982355  WT01      1568            0.0000000000
      4780      1573  TIP3      H2              9.5196165358      -10.2991142316       -4.2458624923  WT01      1568            0.0000000000
      4781      1574  TIP3      OH2            17.6460852181        7.3834777356       -5.8510208098  WT01      1569            0.0000000000
      4782      1574  TIP3      H1             16.7793786221        7.2160451631       -5.4808616263  WT01      1569            0.0000000000
      4783      1574  TIP3      H2             17.9504236807        6.5255898344       -6.1470584092  WT01      1569            0.0000000000
      4784      1575  TIP3      OH2             9.8425555912       17.7229402149        8.9393676653  WT01      1570            0.0000000000
      4785      1575  TIP3      H1             10.2276429543       17.0061471946        8.4352374243  WT01      1570            0.0000000000
      4786      1575  TIP3      H2             10.5139264739       18.4052088331        8.9377924181  WT01      1570            0.0000000000
      4787      1576  TIP3      OH2            17.4732073301       -1.4359058984      -12.2111758796  WT01      1571            0.0000000000
      4788      1576  TIP3      H1             17.6918126890       -0.7863084714      -11.5429942494  WT01      1571            0.0000000000
      4789      1576  TIP3      H2             18.3180422926       -1.6964934771      -12.5780270908  WT01      1571            0.0000000000
      4790      1577  TIP3      OH2             8.6779037417      -19.0073342816       10.5335398196  WT01      1572            0.0000000000
      4791      1577  TIP3      H1              9.0347431428      -19.7407634844       11.0345179203  WT01      1572            0.0000000000
      4792      1577  TIP3      H2              7.8721894408      -18.7719056173       10.9935720145  WT01      1572            0.0000000000
      4793      1578  TIP3      OH2            16.8491147974       -9.0096513649      -17.5191312322  WT01      1573            0.0000000000
      4794      1578  TIP3      H1             16.2694118509       -8.8359490985      -18.2607536613  WT01      1573            0.0000000000
      4795      1578  TIP3      H2             16.7209347582       -9.9385166259      -17.3267487602  WT01      1573            0.0000000000
      4796      1579  TIP3      OH2           -17.2704643521       10.5957158694      -14.9004345334  WT01      1574            0.0000000000
      4797      1579  TIP3      H1            -16.6429404584       10.9538982948      -15.5282489359  WT01      1574            0.0000000000
      4798      1579  TIP3      H2            -17.4842449694       11.3324277842      -14.3279092385  WT01      1574            0.0000000000
      4799      1580  TIP3      OH2             8.3303802195      -15.6903175168        9.2375229079  WT01      1575            0.0000000000
      4800      1580  TIP3      H1              8.9242242735      -15.1105138000        9.7143967913  WT01      1575            0.0000000000
      4801      1580  TIP3      H2              8.8694807765      -16.0663516986        8.5416775986  WT01      1575            0.0000000000
      4802      1581  TIP3      OH2            13.5931731553      -16.6617640350       12.8888471940  WT01      1576            0.0000000000
      4803      1581  TIP3      H1             13.5246046547      -17.5256088007       12.4822732247  WT01      1576            0.0000000000
      4804      1581  TIP3      H2             13.1611830531      -16.7608615419       13.7372551423  WT01      1576            0.0000000000
      4805      1582  TIP3      OH2            -5.0880957017       -1.7164142520        7.6765561766  WT01      1577            0.0000000000
      4806      1582  TIP3      H1             -4.6275616535       -1.8475957430        6.8477427972  WT01      1577            0.0000000000
      4807      1582  TIP3      H2             -5.8249713603       -2.3263057042        7.6408001790  WT01      1577            0.0000000000
      4808      1583  TIP3      OH2            14.1834796716       12.2905068787        8.7834424437  WT01      1578            0.0000000000
      4809      1583  TIP3      H1             14.1630042868       11.4315883771        8.3614571629  WT01      1578            0.0000000000
      4810      1583  TIP3      H2             14.4627593920       12.1102872875        9.6810813176  WT01      1578            0.0000000000
      4811      1584  TIP3      OH2             0.1583005152       -0.4147525990      -18.4916106877  WT01      1579            0.0000000000
      4812      1584  TIP3      H1             -0.4930966733       -0.3906511303      -19.1925619222  WT01      1579            0.0000000000
      4813      1584  TIP3      H2              0.7237958547        0.3381708351      -18.6635209389  WT01      1579            0.0000000000
      4814      1585  TIP3      OH2            10.1983507016      -15.1099046923        2.2379670890  WT01      1580            0.0000000000
      4815      1585  TIP3      H1             10.0466559683      -15.0801804356        1.2933311869  WT01      1580            0.0000000000
      4816      1585  TIP3      H2              9.3230629138      -15.1766669426        2.6196029122  WT01      1580            0.0000000000
      4817      1586  TIP3      OH2             1.5496591192        5.8799749592        4.8236505030  WT01      1581            0.0000000000
      4818      1586  TIP3      H1              0.9234504253        5.5940990972        5.4887591214  WT01      1581            0.0000000000
      4819      1586  TIP3      H2              1.7154716507        5.0973861915        4.2980148535  WT01      1581            0.0000000000
      4820      1587  TIP3      OH2             3.1152302294       -1.5345125173      -11.1152236432  WT01      1582            0.0000000000
      4821      1587  TIP3      H1              2.1612114039       -1.4816853421      -11.1725750268  WT01      1582            0.0000000000
      4822      1587  TIP3      H2              3.4176042252       -0.6511264561      -11.3260098965  WT01      1582            0.0000000000
      4823      1588  TIP3      OH2           -12.9706070007      -11.0782989736        2.2251527795  WT01      1583            0.0000000000
      4824      1588  TIP3      H1            -12.3165296318      -11.3374324029        1.5761038813  WT01      1583            0.0000000000
      4825      1588  TIP3      H2            -13.7257115683      -10.7998671441        1.7069591676  WT01      1583            0.0000000000
      4826      1589  TIP3      OH2           -16.0058101848      -18.9107154096        7.2567541379  WT01      1584            0.0000000000
      4827      1589  TIP3      H1            -16.0416861100      -19.5415394430        6.5377230066  WT01      1584            0.0000000000
      4828      1589  TIP3      H2            -16.3074180271      -19.4010739014        8.0214848552  WT01      1584            0.0000000000
      4829      1590  TIP3      OH2            -7.8212819066       -9.1475343346       -6.7103908661  WT01      1585            0.0000000000
      4830      1590  TIP3      H1             -8.3633317753       -8.5338497734       -6.2146036029  WT01      1585            0.0000000000
      4831      1590  TIP3      H2             -8.3674972922       -9.9278730754       -6.8050059451  WT01      1585            0.0000000000
      4832      1591  TIP3      OH2           -19.5841382415      -10.4326446405      -11.0278291773  WT01      1586            0.0000000000
      4833      1591  TIP3      H1            -19.7397746908       -9.5243247757      -10.7690548937  WT01      1586            0.0000000000
      4834      1591  TIP3      H2            -19.4162328479      -10.3885973730      -11.9691577214  WT01      1586            0.0000000000
      4835      1592  TIP3      OH2            -6.1851075984       -1.2437357624       -3.1127063309  WT01      1587            0.0000000000
      4836      1592  TIP3      H1             -5.7457353307       -0.5300093928       -2.6503444696  WT01      1587            0.0000000000
      4837      1592  TIP3      H2             -7.0765837345       -1.2426012182       -2.7641366498  WT01      1587            0.0000000000
      4838      1593  TIP3      OH2             8.6780709485       -9.7480336291        9.6730081885  WT01      1588            0.0000000000
      4839      1593  TIP3      H1              7.7234050093       -9.7842052782        9.6135408252  WT01      1588            0.0000000000
      4840      1593  TIP3      H2              8.8860174342      -10.2155581995       10.4819648291  WT01      1588            0.0000000000
      4841      1594  TIP3      OH2             9.3149609245       -4.5188516323        0.6605818344  WT01      1589            0.0000000000
      4842      1594  TIP3      H1              9.2585996658       -5.4024290983        1.0243758439  WT01      1589            0.0000000000
      4843      1594  TIP3      H2              9.0444814433       -4.6174736538       -0.2522962287  WT01      1589            0.0000000000
      4844      1595  TIP3      OH2           -15.5936853787       -0.3034995205       -4.9162104728  WT01      1590            0.0000000000
      4845      1595  TIP3      H1            -15.8818505680        0.5577759107       -4.6138906646  WT01      1590            0.0000000000
      4846      1595  TIP3      H2            -14.7403567438       -0.1432595462       -5.3191809462  WT01      1590            0.0000000000
      4847      1596  TIP3      OH2           -19.0725517965       18.8190855839        2.4618067592  WT01      1591            0.0000000000
      4848      1596  TIP3      H1            -18.4626917738       18.0833751907        2.4067360673  WT01      1591            0.0000000000
      4849      1596  TIP3      H2            -19.6059117399       18.7484582548        1.6701182079  WT01      1591            0.0000000000
      4850      1597  TIP3      OH2           -15.4539279764      -19.2549152352      -12.5281891802  WT01      1592            0.0000000000
      4851      1597  TIP3      H1            -15.8036652389      -20.1358522111      -12.3945265347  WT01      1592            0.0000000000
      4852      1597  TIP3      H2            -16.1803977993      -18.6721876682      -12.3070512365  WT01      1592            0.0000000000
      4853      1598  TIP3      OH2            19.0740462690       14.9445472267        2.3708071264  WT01      1593            0.0000000000
      4854      1598  TIP3      H1             18.8961473875       14.0955066691        1.9661913450  WT01      1593            0.0000000000
      4855      1598  TIP3      H2             18.2082142366       15.3170079490        2.5376594953  WT01      1593            0.0000000000
      4856      1599  TIP3      OH2            18.0955759146      -10.0302482137       -5.6166993258  WT01      1594            0.0000000000
      4857      1599  TIP3      H1             18.5653489318      -10.6443446812       -6.1809959252  WT01      1594            0.0000000000
      4858      1599  TIP3      H2             18.3203316903      -10.3019611866       -4.7268180345  WT01      1594            0.0000000000
      4859      1600  TIP3      OH2             7.6314835045        1.3557000640        7.9404331643  WT01      1595            0.0000000000
      4860      1600  TIP3      H1              7.6657430731        2.1582490316        8.4609840720  WT01      1595            0.0000000000
      4861      1600  TIP3      H2              8.2984675330        0.7893110107        8.3284635202  WT01      1595            0.0000000000
      4862      1601  TIP3      OH2            19.4943971573      -11.7289848975        2.5728669081  WT01      1596            0.0000000000
      4863      1601  TIP3      H1             18.8813930061      -12.4258707711        2.8069775676  WT01      1596            0.0000000000
      4864      1601  TIP3      H2             19.2915507352      -11.0170635771        3.1797055798  WT01      1596            0.0000000000
      4865      1602  TIP3      OH2             8.9574958179       -3.6281517624       17.6292514959  WT01      1597            0.0000000000
      4866      1602  TIP3      H1              8.6593388414       -3.7878762148       16.7338061722  WT01      1597            0.0000000000
      4867      1602  TIP3      H2              9.6045835668       -2.9278097817       17.5454042154  WT01      1597            0.0000000000
      4868      1603  TIP3      OH2            11.0795461906        5.5804250345       14.8072102031  WT01      1598            0.0000000000
      4869      1603  TIP3      H1             11.0223224894        6.4803592044       15.1282643246  WT01      1598            0.0000000000
      4870      1603  TIP3      H2             10.9055225137        5.6490025966       13.8684638641  WT01      1598            0.0000000000
      4871      1604  TIP3      OH2             4.7136498674      -17.3738728259        0.4622140863  WT01      1599            0.0000000000
      4872      1604  TIP3      H1              5.3479987646      -17.3594624795       -0.2544627095  WT01      1599            0.0000000000
      4873      1604  TIP3      H2              4.6049584096      -16.4543832783        0.7050246090  WT01      1599            0.0000000000
      4874      1605  TIP3      OH2            16.6286225585      -15.7030833014        7.8203541051  WT01      1600            0.0000000000
      4875      1605  TIP3      H1             17.3019215000      -16.3360126360        7.5707528151  WT01      1600            0.0000000000
      4876      1605  TIP3      H2             16.9107675753      -15.3770140524        8.6749328583  WT01      1600            0.0000000000
      4877      1606  TIP3      OH2             9.1926751913       -8.2963024037      -10.3998243787  WT01      1601            0.0000000000
      4878      1606  TIP3      H1              8.8615877804       -7.4343775446      -10.6522099461  WT01      1601            0.0000000000
      4879      1606  TIP3      H2              9.6880083017       -8.1372728683       -9.5963403852  WT01      1601            0.0000000000
      4880      1607  TIP3      OH2            13.2712449377       -6.7551440158       -9.5918454237  WT01      1602            0.0000000000
      4881      1607  TIP3      H1             14.1342900341       -6.4181704787       -9.8323320301  WT01      1602            0.0000000000
      4882      1607  TIP3      H2             13.2465606030       -7.6376273162       -9.9617720640  WT01      1602            0.0000000000
      4883      1608  TIP3      OH2            12.3406145133      -14.5298350387       -1.6812115585  WT01      1603            0.0000000000
      4884      1608  TIP3      H1             13.1163081151      -14.0807569316       -2.0171581331  WT01      1603            0.0000000000
      4885      1608  TIP3      H2             12.6889786637      -15.2528280053       -1.1595264044  WT01      1603            0.0000000000
      4886      1609  TIP3      OH2            19.0142270318       -5.3007380332        2.7053078775  WT01      1604            0.0000000000
      4887      1609  TIP3      H1             18.5389164474       -5.5887809605        1.9259857802  WT01      1604            0.0000000000
      4888      1609  TIP3      H2             19.5368427877       -6.0604439397        2.9621181546  WT01      1604            0.0000000000
      4889      1610  TIP3      OH2            -2.1158650734       18.8752210902      -15.1072896521  WT01      1605            0.0000000000
      4890      1610  TIP3      H1             -1.3869234847       19.1533160992      -15.6618517651  WT01      1605            0.0000000000
      4891      1610  TIP3      H2             -1.9409810527       17.9517000286      -14.9263028041  WT01      1605            0.0000000000
      4892      1611  TIP3      OH2             2.9684181358       17.6306220368        0.1119697559  WT01      1606            0.0000000000
      4893      1611  TIP3      H1              2.5137306394       18.3889375734       -0.2547026299  WT01      1606            0.0000000000
      4894      1611  TIP3      H2              3.2572625702       17.9194642422        0.9776318632  WT01      1606            0.0000000000
      4895      1612  TIP3      OH2           -15.2543416332      -11.2180879063      -12.4231690434  WT01      1607            0.0000000000
      4896      1612  TIP3      H1            -14.8723056089      -10.4259191226      -12.8009903044  WT01      1607            0.0000000000
      4897      1612  TIP3      H2            -14.5473393921      -11.8627239698      -12.4518742308  WT01      1607            0.0000000000
      4898      1613  TIP3      OH2             5.7387685817        2.3446779185       15.3815526810  WT01      1608            0.0000000000
      4899      1613  TIP3      H1              6.6595896352        2.0968195047       15.4645382532  WT01      1608            0.0000000000
      4900      1613  TIP3      H2              5.4317999119        1.8720156932       14.6078651034  WT01      1608            0.0000000000
      4901      1614  TIP3      OH2            17.4029224566       -5.7393073712        0.2732076558  WT01      1609            0.0000000000
      4902      1614  TIP3      H1             16.9255357351       -4.9417740191        0.5018433515  WT01      1609            0.0000000000
      4903      1614  TIP3      H2             17.0481543052       -5.9956555118       -0.5780602225  WT01      1609            0.0000000000
      4904      1615  TIP3      OH2             9.7480008441      -14.3946411716       -0.4117565428  WT01      1610            0.0000000000
      4905      1615  TIP3      H1             10.4574537027      -14.5794114865       -1.0271981592  WT01      1610            0.0000000000
      4906      1615  TIP3      H2              8.9574595519      -14.3892275990       -0.9514295638  WT01      1610            0.0000000000
      4907      1616  TIP3      OH2           -17.6097956841        0.0510291568       -8.8877676313  WT01      1611            0.0000000000
      4908      1616  TIP3      H1            -17.7033184236       -0.8681809578       -8.6376914960  WT01      1611            0.0000000000
      4909      1616  TIP3      H2            -18.4096781753        0.4690619674       -8.5689128358  WT01      1611            0.0000000000
      4910      1617  TIP3      OH2            17.6237588602      -17.5252285139        2.9378286538  WT01      1612            0.0000000000
      4911      1617  TIP3      H1             18.2054840384      -17.1254647896        3.5843706810  WT01      1612            0.0000000000
      4912      1617  TIP3      H2             17.5933788536      -16.8935517734        2.2192930863  WT01      1612            0.0000000000
      4913      1618  TIP3      OH2             9.2802954883       -8.9281199919       -7.0398250878  WT01      1613            0.0000000000
      4914      1618  TIP3      H1              8.7041307943       -9.6601463599       -7.2598329352  WT01      1613            0.0000000000
      4915      1618  TIP3      H2             10.1407734848       -9.1941823577       -7.3638933618  WT01      1613            0.0000000000
      4916      1619  TIP3      OH2             7.7362738376      -16.6406828678      -10.2294486730  WT01      1614            0.0000000000
      4917      1619  TIP3      H1              8.3752541326      -17.3520394674      -10.2731268346  WT01      1614            0.0000000000
      4918      1619  TIP3      H2              7.9535913088      -16.1720304257       -9.4236138163  WT01      1614            0.0000000000
      4919      1620  TIP3      OH2             3.7268304407      -11.6229881986       14.6158882769  WT01      1615            0.0000000000
      4920      1620  TIP3      H1              4.1102049193      -11.0051939692       15.2384524185  WT01      1615            0.0000000000
      4921      1620  TIP3      H2              2.7819375917      -11.5335793943       14.7400469684  WT01      1615            0.0000000000
      4922      1621  TIP3      OH2            12.4446391110      -12.9783545859       -7.9056177283  WT01      1616            0.0000000000
      4923      1621  TIP3      H1             11.5110964669      -12.7841633528       -7.8218340330  WT01      1616            0.0000000000
      4924      1621  TIP3      H2             12.6688215975      -13.4337106267       -7.0940606447  WT01      1616            0.0000000000
      4925      1622  TIP3      OH2             4.3899839470      -16.4615310575        4.1132343757  WT01      1617            0.0000000000
      4926      1622  TIP3      H1              4.9067983656      -15.7740473700        4.5333544148  WT01      1617            0.0000000000
      4927      1622  TIP3      H2              4.7107139041      -16.4858487748        3.2116952727  WT01      1617            0.0000000000
      4928      1623  TIP3      OH2            14.2881482267      -17.1902362721       15.6975422644  WT01      1618            0.0000000000
      4929      1623  TIP3      H1             14.8844889179      -16.9986376254       16.4213513204  WT01      1618            0.0000000000
      4930      1623  TIP3      H2             13.5414465259      -17.6242158833       16.1102529113  WT01      1618            0.0000000000
      4931      1624  TIP3      OH2            14.0294448446       -6.1827634890        3.3598008820  WT01      1619            0.0000000000
      4932      1624  TIP3      H1             13.9662861518       -5.2320110840        3.4509746443  WT01      1619            0.0000000000
      4933      1624  TIP3      H2             14.8808757913       -6.4039978195        3.7370972179  WT01      1619            0.0000000000
      4934      1625  TIP3      OH2            16.5973301096      -17.3075446325       17.1111564741  WT01      1620            0.0000000000
      4935      1625  TIP3      H1             17.2346155132      -16.7872854584       16.6218411186  WT01      1620            0.0000000000
      4936      1625  TIP3      H2             16.7803561144      -17.1094804930       18.0295811522  WT01      1620            0.0000000000
      4937      1626  TIP3      OH2            -6.4798655071      -12.0507010071       -4.4835609590  WT01      1621            0.0000000000
      4938      1626  TIP3      H1             -6.2860711630      -11.1960165987       -4.0986062536  WT01      1621            0.0000000000
      4939      1626  TIP3      H2             -7.4356947557      -12.0860616542       -4.5205999004  WT01      1621            0.0000000000
      4940      1627  TIP3      OH2            14.9378136959      -13.6993140813       14.5795203339  WT01      1622            0.0000000000
      4941      1627  TIP3      H1             15.4146956233      -13.4291940988       13.7947588202  WT01      1622            0.0000000000
      4942      1627  TIP3      H2             14.7661817496      -14.6316343808       14.4470320509  WT01      1622            0.0000000000
      4943      1628  TIP3      OH2             8.3103032365      -15.0119747005       18.5281666925  WT01      1623            0.0000000000
      4944      1628  TIP3      H1              7.4091039009      -15.3300319417       18.4742115285  WT01      1623            0.0000000000
      4945      1628  TIP3      H2              8.8481711668      -15.7989227649       18.4407444719  WT01      1623            0.0000000000
      4946      1629  TIP3      OH2           -15.1906329837      -13.5735049313        8.0875474296  WT01      1624            0.0000000000
      4947      1629  TIP3      H1            -15.2692456559      -12.7885167925        7.5454722680  WT01      1624            0.0000000000
      4948      1629  TIP3      H2            -15.6177667666      -13.3398155715        8.9116698875  WT01      1624            0.0000000000
      4949      1630  TIP3      OH2             3.9437419308       16.1799047495       -3.6777751206  WT01      1625            0.0000000000
      4950      1630  TIP3      H1              4.5474184038       16.8330381287       -4.0316441866  WT01      1625            0.0000000000
      4951      1630  TIP3      H2              4.2338533037       16.0491664237       -2.7750156329  WT01      1625            0.0000000000
      4952      1631  TIP3      OH2            -9.8752137164        8.5246685247        0.5362757183  WT01      1626            0.0000000000
      4953      1631  TIP3      H1             -9.8384793930        8.4978882200        1.4923955935  WT01      1626            0.0000000000
      4954      1631  TIP3      H2             -8.9592766767        8.4939332966        0.2599670212  WT01      1626            0.0000000000
      4955      1632  TIP3      OH2            19.0946365605      -11.1689933920       10.8903685529  WT01      1627            0.0000000000
      4956      1632  TIP3      H1             19.6928533629      -11.0410590914       10.1541611887  WT01      1627            0.0000000000
      4957      1632  TIP3      H2             19.3004148588      -10.4549260293       11.4936884552  WT01      1627            0.0000000000
      4958      1633  TIP3      OH2            18.9604425339       16.3888056593      -18.8327714739  WT01      1628            0.0000000000
      4959      1633  TIP3      H1             18.9691718223       16.2109870623      -19.7732692980  WT01      1628            0.0000000000
      4960      1633  TIP3      H2             19.4909494067       17.1792805654      -18.7330534127  WT01      1628            0.0000000000
      4961      1634  TIP3      OH2            18.4637028946       18.7743793883        4.0532308387  WT01      1629            0.0000000000
      4962      1634  TIP3      H1             19.1971737206       18.8178551859        3.4397471686  WT01      1629            0.0000000000
      4963      1634  TIP3      H2             17.7610354931       18.3536647396        3.5577618504  WT01      1629            0.0000000000
      4964      1635  TIP3      OH2             9.5525317068      -12.6721982259       -6.9107092971  WT01      1630            0.0000000000
      4965      1635  TIP3      H1              9.6746133954      -12.8181683462       -5.9726151673  WT01      1630            0.0000000000
      4966      1635  TIP3      H2              8.7944853883      -12.0903942345       -6.9664022557  WT01      1630            0.0000000000
      4967      1636  TIP3      OH2             7.0651581643      -14.1912131831       -0.7302108950  WT01      1631            0.0000000000
      4968      1636  TIP3      H1              6.6365343679      -14.0432943144        0.1127798882  WT01      1631            0.0000000000
      4969      1636  TIP3      H2              6.5235846180      -13.7171753209       -1.3612560679  WT01      1631            0.0000000000
      4970      1637  TIP3      OH2             8.1649806280       -6.7224026393       18.6913465032  WT01      1632            0.0000000000
      4971      1637  TIP3      H1              8.3129186070       -5.8240692696       18.3958074663  WT01      1632            0.0000000000
      4972      1637  TIP3      H2              8.2319539366       -6.6753914358       19.6450426465  WT01      1632            0.0000000000
      4973      1638  TIP3      OH2           -14.3113022034      -10.4937830841       -7.8535910931  WT01      1633            0.0000000000
      4974      1638  TIP3      H1            -13.3800415216      -10.6512641860       -8.0091065461  WT01      1633            0.0000000000
      4975      1638  TIP3      H2            -14.7505123469      -10.8883353423       -8.6070197735  WT01      1633            0.0000000000
      4976      1639  TIP3      OH2           -11.6561829941        4.8696483316       -6.7359481733  WT01      1634            0.0000000000
      4977      1639  TIP3      H1            -11.5124184184        4.2603413589       -7.4600397219  WT01      1634            0.0000000000
      4978      1639  TIP3      H2            -12.6069347331        4.9722493536       -6.6938058884  WT01      1634            0.0000000000
      4979      1640  TIP3      OH2            13.9201386877       19.6861860724        0.8615757111  WT01      1635            0.0000000000
      4980      1640  TIP3      H1             14.2894081483       20.4586253498        1.2896054288  WT01      1635            0.0000000000
      4981      1640  TIP3      H2             13.0576179650       19.5789352659        1.2625583522  WT01      1635            0.0000000000
      4982      1641  TIP3      OH2             8.4319676107      -11.4825115023       -2.8512512886  WT01      1636            0.0000000000
      4983      1641  TIP3      H1              7.5632670391      -11.1028758479       -2.9834174634  WT01      1636            0.0000000000
      4984      1641  TIP3      H2              8.5732066227      -11.4352341562       -1.9057100652  WT01      1636            0.0000000000
      4985      1642  TIP3      OH2             5.8417946203        1.0368704141       -0.8617773137  WT01      1637            0.0000000000
      4986      1642  TIP3      H1              6.1643037737        1.7462284443       -0.3058718883  WT01      1637            0.0000000000
      4987      1642  TIP3      H2              5.4645449523        0.4049297202       -0.2497597826  WT01      1637            0.0000000000
      4988      1643  TIP3      OH2            17.4205862364      -14.6029573624      -13.3167052054  WT01      1638            0.0000000000
      4989      1643  TIP3      H1             16.9043046563      -14.8412749103      -14.0866986387  WT01      1638            0.0000000000
      4990      1643  TIP3      H2             17.4591252392      -13.6468207272      -13.3401421646  WT01      1638            0.0000000000
      4991      1644  TIP3      OH2            11.8080251302      -12.4016167064      -14.6038684231  WT01      1639            0.0000000000
      4992      1644  TIP3      H1             10.9334827237      -12.2506319703      -14.9624921809  WT01      1639            0.0000000000
      4993      1644  TIP3      H2             11.6631021053      -12.9752377543      -13.8514137591  WT01      1639            0.0000000000
      4994      1645  TIP3      OH2           -18.6944913327       17.6082089170       -9.4057324174  WT01      1640            0.0000000000
      4995      1645  TIP3      H1            -18.0047550831       17.0173392766       -9.1034597177  WT01      1640            0.0000000000
      4996      1645  TIP3      H2            -18.4353022267       18.4684571182       -9.0755417896  WT01      1640            0.0000000000
      4997      1646  TIP3      OH2            18.6391056525       -3.0874732322       -3.0406725073  WT01      1641            0.0000000000
      4998      1646  TIP3      H1             18.4568999388       -3.0580936037       -2.1014335993  WT01      1641            0.0000000000
      4999      1646  TIP3      H2             18.2648142327       -2.2758201423       -3.3832465953  WT01      1641            0.0000000000
      5000      1647  TIP3      OH2             5.8691161444       -8.2031381337       11.5309911445  WT01      1642            0.0000000000
      5001      1647  TIP3      H1              5.7953519907       -8.4958576096       10.6226377061  WT01      1642            0.0000000000
      5002      1647  TIP3      H2              5.0570191894       -8.4962534684       11.9442873425  WT01      1642            0.0000000000
      5003      1648  TIP3      OH2            11.3265380927      -14.7601146573        7.8001076696  WT01      1643            0.0000000000
      5004      1648  TIP3      H1             10.8217065196      -15.4058436884        7.3057283494  WT01      1643            0.0000000000
      5005      1648  TIP3      H2             11.3287921149      -15.0931801990        8.6974894587  WT01      1643            0.0000000000
      5006      1649  TIP3      OH2           -18.6108854754      -12.6463513604      -19.7015876591  WT01      1644            0.0000000000
      5007      1649  TIP3      H1            -19.4496451461      -12.3627084388      -19.3379109911  WT01      1644            0.0000000000
      5008      1649  TIP3      H2            -18.0768316689      -11.8522194202      -19.7208957982  WT01      1644            0.0000000000
      5009      1650  TIP3      OH2             9.5610313312      -10.3643552952      -12.2486886114  WT01      1645            0.0000000000
      5010      1650  TIP3      H1              9.7071317897      -10.0288861899      -13.1331923969  WT01      1645            0.0000000000
      5011      1650  TIP3      H2              9.1430098988       -9.6398834066      -11.7832529277  WT01      1645            0.0000000000
      5012      1651  TIP3      OH2            17.1386735189        6.9354632861       -0.1801407754  WT01      1646            0.0000000000
      5013      1651  TIP3      H1             16.3120350044        7.1747555565        0.2389532316  WT01      1646            0.0000000000
      5014      1651  TIP3      H2             17.7984384128        7.4598761171        0.2736579448  WT01      1646            0.0000000000
      5015      1652  TIP3      OH2            14.9185748138       -0.7801720033        3.6579813387  WT01      1647            0.0000000000
      5016      1652  TIP3      H1             15.0120465251       -0.7928157498        4.6105226690  WT01      1647            0.0000000000
      5017      1652  TIP3      H2             15.2340224568        0.0851588525        3.3973530488  WT01      1647            0.0000000000
      5018      1653  TIP3      OH2             5.8412965533      -14.4382553985        5.4283926474  WT01      1648            0.0000000000
      5019      1653  TIP3      H1              5.4728860395      -13.9590177074        4.6862088832  WT01      1648            0.0000000000
      5020      1653  TIP3      H2              6.0470237175      -13.7611876603        6.0729757861  WT01      1648            0.0000000000
      5021      1654  TIP3      OH2            15.1788998321        5.4789532504        3.7805174287  WT01      1649            0.0000000000
      5022      1654  TIP3      H1             14.2354955982        5.3369632497        3.8583576641  WT01      1649            0.0000000000
      5023      1654  TIP3      H2             15.2765621068        6.4306376076        3.7490408433  WT01      1649            0.0000000000
      5024      1655  TIP3      OH2           -18.4959672410       -9.9637413677        0.7162425343  WT01      1650            0.0000000000
      5025      1655  TIP3      H1            -17.5494676111       -9.8951404561        0.8413991422  WT01      1650            0.0000000000
      5026      1655  TIP3      H2            -18.7408449174      -10.7681456264        1.1736269713  WT01      1650            0.0000000000
      5027      1656  TIP3      OH2             6.3362114085      -16.3246454588       11.1705219889  WT01      1651            0.0000000000
      5028      1656  TIP3      H1              5.7412188284      -17.0148635567       10.8775806671  WT01      1651            0.0000000000
      5029      1656  TIP3      H2              6.9428076797      -16.2046310795       10.4398583703  WT01      1651            0.0000000000
      5030      1657  TIP3      OH2           -18.9191589169       19.8864597595        8.6540773663  WT01      1652            0.0000000000
      5031      1657  TIP3      H1            -18.5408172129       19.0861837794        8.2898690169  WT01      1652            0.0000000000
      5032      1657  TIP3      H2            -19.1763435146       20.4003136935        7.8885435471  WT01      1652            0.0000000000
      5033      1658  TIP3      OH2            14.4461533344       18.4376985231       -3.2822767211  WT01      1653            0.0000000000
      5034      1658  TIP3      H1             15.3657585103       18.2022405165       -3.1593228325  WT01      1653            0.0000000000
      5035      1658  TIP3      H2             14.4623778977       19.1335516791       -3.9393588773  WT01      1653            0.0000000000
      5036      1659  TIP3      OH2            -6.6346737972      -12.7186279822        8.7496689461  WT01      1654            0.0000000000
      5037      1659  TIP3      H1             -6.9351338784      -12.9876760514        7.8815856049  WT01      1654            0.0000000000
      5038      1659  TIP3      H2             -5.9077633060      -12.1202162518        8.5772266379  WT01      1654            0.0000000000
      5039      1660  TIP3      OH2             5.1314297048      -13.1817798270       -2.4231118217  WT01      1655            0.0000000000
      5040      1660  TIP3      H1              5.1681693319      -13.0601107457       -3.3718365686  WT01      1655            0.0000000000
      5041      1660  TIP3      H2              4.3064865661      -12.7734106337       -2.1605566254  WT01      1655            0.0000000000
      5042      1661  TIP3      OH2            10.9041666532       -1.5026787064       -5.0476203839  WT01      1656            0.0000000000
      5043      1661  TIP3      H1             11.7316041782       -1.0224614442       -5.0787705749  WT01      1656            0.0000000000
      5044      1661  TIP3      H2             11.1425431663       -2.4054415192       -5.2583993031  WT01      1656            0.0000000000
      5045      1662  TIP3      OH2            12.3293619114       15.1393402480        5.7000016074  WT01      1657            0.0000000000
      5046      1662  TIP3      H1             11.7507695307       14.8625681166        4.9894666995  WT01      1657            0.0000000000
      5047      1662  TIP3      H2             11.8655224458       14.8883048113        6.4987919245  WT01      1657            0.0000000000
      5048      1663  TIP3      OH2             0.4171552664       -1.8599128932      -15.7884457473  WT01      1658            0.0000000000
      5049      1663  TIP3      H1             -0.4315794379       -1.9442860297      -15.3539778122  WT01      1658            0.0000000000
      5050      1663  TIP3      H2              0.2587213184       -1.2488865895      -16.5080132225  WT01      1658            0.0000000000
      5051      1664  TIP3      OH2            -2.9820683341      -17.6148537459        0.8106553217  WT01      1659            0.0000000000
      5052      1664  TIP3      H1             -3.7251589650      -18.1612029102        1.0666840623  WT01      1659            0.0000000000
      5053      1664  TIP3      H2             -3.0135387934      -17.5998595202       -0.1459096758  WT01      1659            0.0000000000
      5054      1665  TIP3      OH2             2.0082229672      -15.2728160467       17.8059225843  WT01      1660            0.0000000000
      5055      1665  TIP3      H1              1.5784132613      -15.6675958938       18.5646348486  WT01      1660            0.0000000000
      5056      1665  TIP3      H2              2.5878855340      -15.9587246712       17.4746334682  WT01      1660            0.0000000000
      5057      1666  TIP3      OH2            16.8047602011       18.8979384910        7.8058545572  WT01      1661            0.0000000000
      5058      1666  TIP3      H1             16.7185255320       19.7700049643        7.4207630630  WT01      1661            0.0000000000
      5059      1666  TIP3      H2             17.3713533995       18.4223146337        7.1984124572  WT01      1661            0.0000000000
      5060      1667  TIP3      OH2            -7.0616262187        5.0681830173       -8.0893004644  WT01      1662            0.0000000000
      5061      1667  TIP3      H1             -7.6790812474        4.8719885837       -7.3846808204  WT01      1662            0.0000000000
      5062      1667  TIP3      H2             -6.8452312438        5.9927123290       -7.9682608937  WT01      1662            0.0000000000
      5063      1668  TIP3      OH2            11.0884196969      -17.6343411542      -19.5422848386  WT01      1663            0.0000000000
      5064      1668  TIP3      H1             10.7434172015      -17.1155796316      -18.8155857456  WT01      1663            0.0000000000
      5065      1668  TIP3      H2             10.7692461933      -17.1895234126      -20.3274582350  WT01      1663            0.0000000000
      5066      1669  TIP3      OH2             6.4745190716      -14.1245755545       14.0971193362  WT01      1664            0.0000000000
      5067      1669  TIP3      H1              6.2346351527      -13.2074612196       13.9644965128  WT01      1664            0.0000000000
      5068      1669  TIP3      H2              6.5505654842      -14.4830352557       13.2128369171  WT01      1664            0.0000000000
      5069      1670  TIP3      OH2            19.1024296748      -17.1649773899       13.6147159715  WT01      1665            0.0000000000
      5070      1670  TIP3      H1             18.5091647412      -16.7317228218       13.0010719308  WT01      1665            0.0000000000
      5071      1670  TIP3      H2             19.8829826384      -16.6110352765       13.6255334152  WT01      1665            0.0000000000
      5072      1671  TIP3      OH2             7.9489236016       18.6443919863        5.9475530440  WT01      1666            0.0000000000
      5073      1671  TIP3      H1              7.7250040096       17.8026975833        5.5505110320  WT01      1666            0.0000000000
      5074      1671  TIP3      H2              7.1450689589       18.9247714677        6.3850880379  WT01      1666            0.0000000000
      5075      1672  TIP3      OH2             3.8669558636      -10.9094411256       10.4156756055  WT01      1667            0.0000000000
      5076      1672  TIP3      H1              3.5461724775      -10.3262388652       11.1035745469  WT01      1667            0.0000000000
      5077      1672  TIP3      H2              3.1018073785      -11.4260608731       10.1629234674  WT01      1667            0.0000000000
      5078      1673  TIP3      OH2           -13.3501267159        8.9050293859       12.0401969142  WT01      1668            0.0000000000
      5079      1673  TIP3      H1            -12.4211537182        9.1319894535       11.9986023422  WT01      1668            0.0000000000
      5080      1673  TIP3      H2            -13.8061608358        9.7238954602       11.8459727015  WT01      1668            0.0000000000
      5081      1674  TIP3      OH2           -15.3041811487      -18.1925641444       -9.1393495421  WT01      1669            0.0000000000
      5082      1674  TIP3      H1            -15.5833648985      -17.3118534682       -9.3896232916  WT01      1669            0.0000000000
      5083      1674  TIP3      H2            -14.4677056865      -18.3157507545       -9.5880874069  WT01      1669            0.0000000000
      5084      1675  TIP3      OH2             6.2837950529       12.5230700860       -0.3044982417  WT01      1670            0.0000000000
      5085      1675  TIP3      H1              6.3680397734       12.7816827543       -1.2222422833  WT01      1670            0.0000000000
      5086      1675  TIP3      H2              5.5290403338       11.9345578898       -0.2893153580  WT01      1670            0.0000000000
      5087      1676  TIP3      OH2             9.9529027499      -18.5331183071      -10.0496282682  WT01      1671            0.0000000000
      5088      1676  TIP3      H1             10.3884443144      -19.3847351856      -10.0854618969  WT01      1671            0.0000000000
      5089      1676  TIP3      H2              9.9919284106      -18.2056101041      -10.9482089188  WT01      1671            0.0000000000
      5090      1677  TIP3      OH2            17.6462106557      -13.4160223676        3.4252029097  WT01      1672            0.0000000000
      5091      1677  TIP3      H1             18.4136403919      -13.5583695913        3.9792973774  WT01      1672            0.0000000000
      5092      1677  TIP3      H2             16.9010265799      -13.5099114954        4.0185976653  WT01      1672            0.0000000000
      5093      1678  TIP3      OH2             0.8621463763      -10.0879748386       17.3154065552  WT01      1673            0.0000000000
      5094      1678  TIP3      H1              0.0719639363      -10.3538844389       17.7856571343  WT01      1673            0.0000000000
      5095      1678  TIP3      H2              1.4104476252      -10.8725010132       17.3046254230  WT01      1673            0.0000000000
      5096      1679  TIP3      OH2            -0.8951701498       15.0660072952       16.6680387873  WT01      1674            0.0000000000
      5097      1679  TIP3      H1             -1.1103631389       14.4800989119       17.3937351115  WT01      1674            0.0000000000
      5098      1679  TIP3      H2             -1.6710144320       15.0489694445       16.1076753584  WT01      1674            0.0000000000
      5099      1680  TIP3      OH2            15.3028470251        2.7408572417       14.5463478892  WT01      1675            0.0000000000
      5100      1680  TIP3      H1             14.8925386625        2.9949538792       13.7197199454  WT01      1675            0.0000000000
      5101      1680  TIP3      H2             14.5721363295        2.6429592510       15.1568474173  WT01      1675            0.0000000000
      5102      1681  TIP3      OH2            19.6650666773       -8.9309119483       12.4513670133  WT01      1676            0.0000000000
      5103      1681  TIP3      H1             19.6417328759       -8.7248540454       13.3858334308  WT01      1676            0.0000000000
      5104      1681  TIP3      H2             20.4209282989       -8.4475320871       12.1178270159  WT01      1676            0.0000000000
      5105      1682  TIP3      OH2             8.3577336468       -8.0952677533       12.9703047428  WT01      1677            0.0000000000
      5106      1682  TIP3      H1              7.9204806926       -7.3071579317       12.6479313968  WT01      1677            0.0000000000
      5107      1682  TIP3      H2              8.0996064028       -8.7816185967       12.3550611677  WT01      1677            0.0000000000
      5108      1683  TIP3      OH2             0.9668924594      -11.1051735834       14.5534817734  WT01      1678            0.0000000000
      5109      1683  TIP3      H1              0.6431122177      -10.5909809391       15.2930790224  WT01      1678            0.0000000000
      5110      1683  TIP3      H2              0.1789515774      -11.3505497349       14.0685369087  WT01      1678            0.0000000000
      5111      1684  TIP3      OH2             2.7562797195      -19.1964488188      -15.2887371797  WT01      1679            0.0000000000
      5112      1684  TIP3      H1              3.3104269316      -19.9504743433      -15.0872472624  WT01      1679            0.0000000000
      5113      1684  TIP3      H2              3.0935946911      -18.8664363721      -16.1215289940  WT01      1679            0.0000000000
      5114      1685  TIP3      OH2             3.6271923895        1.9663950421       11.9894529169  WT01      1680            0.0000000000
      5115      1685  TIP3      H1              4.1138672995        2.6621989030       11.5475973633  WT01      1680            0.0000000000
      5116      1685  TIP3      H2              4.2960528396        1.3318963471       12.2468804124  WT01      1680            0.0000000000
      5117      1686  TIP3      OH2            18.7180624688      -16.6902362338       -5.4028699618  WT01      1681            0.0000000000
      5118      1686  TIP3      H1             18.7904116384      -15.7431762237       -5.2842329270  WT01      1681            0.0000000000
      5119      1686  TIP3      H2             18.3781682345      -16.7955116663       -6.2914760634  WT01      1681            0.0000000000
      5120      1687  TIP3      OH2            11.5359019946       17.6284796406       11.4810866710  WT01      1682            0.0000000000
      5121      1687  TIP3      H1             12.0891790350       16.9468137387       11.8624630282  WT01      1682            0.0000000000
      5122      1687  TIP3      H2             11.1597966162       17.2230829480       10.6997864234  WT01      1682            0.0000000000
      5123      1688  TIP3      OH2             3.8719825833      -18.0286002990      -17.5065116110  WT01      1683            0.0000000000
      5124      1688  TIP3      H1              4.3343150483      -18.4109384684      -18.2523655023  WT01      1683            0.0000000000
      5125      1688  TIP3      H2              3.0256779655      -17.7574258227      -17.8621303792  WT01      1683            0.0000000000
      5126      1689  TIP3      OH2             5.7486542904       -0.4613786027       17.0026082791  WT01      1684            0.0000000000
      5127      1689  TIP3      H1              5.6026258463        0.3717189286       16.5544386595  WT01      1684            0.0000000000
      5128      1689  TIP3      H2              6.1869735083       -1.0101464948       16.3522530877  WT01      1684            0.0000000000
      5129      1690  TIP3      OH2             1.0508477822        7.8689014890        7.0228362260  WT01      1685            0.0000000000
      5130      1690  TIP3      H1              1.4990083185        7.2212440118        6.4788474972  WT01      1685            0.0000000000
      5131      1690  TIP3      H2              0.3295852848        7.3857879985        7.4260899628  WT01      1685            0.0000000000
      5132      1691  TIP3      OH2            -1.9483364734       -9.8085751020       18.4247437704  WT01      1686            0.0000000000
      5133      1691  TIP3      H1             -1.6659964302       -8.9968428176       18.8461777622  WT01      1686            0.0000000000
      5134      1691  TIP3      H2             -2.8126783864       -9.9840440279       18.7967054949  WT01      1686            0.0000000000
      5135      1692  TIP3      OH2            -6.9992629046       17.1618395344       13.4352387421  WT01      1687            0.0000000000
      5136      1692  TIP3      H1             -7.8312388665       17.4999051533       13.1039391087  WT01      1687            0.0000000000
      5137      1692  TIP3      H2             -6.3857215684       17.2819398303       12.7104113429  WT01      1687            0.0000000000
      5138      1693  TIP3      OH2           -19.6387646519       -3.8205826410        8.6834319377  WT01      1688            0.0000000000
      5139      1693  TIP3      H1            -20.0381828074       -3.9320058734        9.5461496269  WT01      1688            0.0000000000
      5140      1693  TIP3      H2            -20.2903470608       -4.1626222885        8.0713199750  WT01      1688            0.0000000000
      5141      1694  TIP3      OH2             0.8326917872       19.6018055546      -12.1615736022  WT01      1689            0.0000000000
      5142      1694  TIP3      H1             -0.0468224221       19.8507139699      -11.8774412959  WT01      1689            0.0000000000
      5143      1694  TIP3      H2              1.3563581638       20.3942817144      -12.0433074901  WT01      1689            0.0000000000
      5144      1695  TIP3      OH2             9.1672905834       -4.2879716085      -15.1411507335  WT01      1690            0.0000000000
      5145      1695  TIP3      H1              9.7157039842       -4.3481149099      -15.9233638350  WT01      1690            0.0000000000
      5146      1695  TIP3      H2              8.6538370866       -3.4902848857      -15.2687955919  WT01      1690            0.0000000000
      5147      1696  TIP3      OH2             0.5903581434       14.7021244168        2.9010948283  WT01      1691            0.0000000000
      5148      1696  TIP3      H1              1.4288016371       14.6989087700        3.3628674765  WT01      1691            0.0000000000
      5149      1696  TIP3      H2              0.7779163448       15.1308218471        2.0660665381  WT01      1691            0.0000000000
      5150      1697  TIP3      OH2            11.1586514085       17.8866527053       14.7671436312  WT01      1692            0.0000000000
      5151      1697  TIP3      H1             10.4475971662       17.3080935281       15.0426485386  WT01      1692            0.0000000000
      5152      1697  TIP3      H2             11.9520181187       17.3637814362       14.8829309805  WT01      1692            0.0000000000
      5153      1698  TIP3      OH2             6.7951426295       -4.0359529076        9.9160713121  WT01      1693            0.0000000000
      5154      1698  TIP3      H1              6.4986244859       -4.7979403673        9.4183927886  WT01      1693            0.0000000000
      5155      1698  TIP3      H2              7.2179971100       -3.4745960156        9.2662218378  WT01      1693            0.0000000000
      5156      1699  TIP3      OH2             9.9603953831       -8.6602671067       17.8510426100  WT01      1694            0.0000000000
      5157      1699  TIP3      H1              9.2286959765       -8.2382797647       18.3013474763  WT01      1694            0.0000000000
      5158      1699  TIP3      H2              9.7967661071       -8.4971273731       16.9221493447  WT01      1694            0.0000000000
      5159      1700  TIP3      OH2            18.7068697149      -16.9613944143       -8.0830337112  WT01      1695            0.0000000000
      5160      1700  TIP3      H1             19.0946526211      -16.9093008551       -8.9566139821  WT01      1695            0.0000000000
      5161      1700  TIP3      H2             17.9322202045      -16.4011322378       -8.1305336126  WT01      1695            0.0000000000
      5162      1701  TIP3      OH2            17.2146216100       15.1863358629       16.7467522533  WT01      1696            0.0000000000
      5163      1701  TIP3      H1             17.0637399619       14.3724371843       16.2660907505  WT01      1696            0.0000000000
      5164      1701  TIP3      H2             17.0742397583       15.8770655125       16.0991279038  WT01      1696            0.0000000000
      5165      1702  TIP3      OH2            -2.9830910601      -13.3696290862      -15.0922986996  WT01      1697            0.0000000000
      5166      1702  TIP3      H1             -2.9704667591      -13.7935931971      -15.9503936073  WT01      1697            0.0000000000
      5167      1702  TIP3      H2             -3.8668157154      -13.5269542130      -14.7598662265  WT01      1697            0.0000000000
      5168      1703  TIP3      OH2            16.1461830130        8.1034612730      -17.9424305593  WT01      1698            0.0000000000
      5169      1703  TIP3      H1             15.5736408356        8.8582656399      -18.0791698508  WT01      1698            0.0000000000
      5170      1703  TIP3      H2             16.4751644514        7.8904629504      -18.8157201669  WT01      1698            0.0000000000
      5171      1704  TIP3      OH2            11.3870296803      -10.1538036357       14.9309834224  WT01      1699            0.0000000000
      5172      1704  TIP3      H1             10.4941778313       -9.8537262961       15.1012801549  WT01      1699            0.0000000000
      5173      1704  TIP3      H2             11.8768353399       -9.3538006567       14.7404120171  WT01      1699            0.0000000000
      5174      1705  TIP3      OH2            16.3804569499        5.8433816581       14.8602922777  WT01      1700            0.0000000000
      5175      1705  TIP3      H1             17.2548709144        6.1597813801       14.6333049526  WT01      1700            0.0000000000
      5176      1705  TIP3      H2             16.5203385314        4.9445802848       15.1583208763  WT01      1700            0.0000000000
      5177      1706  TIP3      OH2            11.9833090302      -12.5090732218       10.1821387200  WT01      1701            0.0000000000
      5178      1706  TIP3      H1             11.8183442396      -12.3070722007        9.2611533692  WT01      1701            0.0000000000
      5179      1706  TIP3      H2             12.1895124096      -13.4437689081       10.1896187851  WT01      1701            0.0000000000
      5180      1707  TIP3      OH2           -16.8539480192       -3.7395337701       -6.6867589665  WT01      1702            0.0000000000
      5181      1707  TIP3      H1            -16.1528191626       -3.5715857061       -6.0571213047  WT01      1702            0.0000000000
      5182      1707  TIP3      H2            -17.5998478165       -4.0068200714       -6.1497083760  WT01      1702            0.0000000000
      5183      1708  TIP3      OH2           -17.8584812057        6.3359397476      -13.3532429231  WT01      1703            0.0000000000
      5184      1708  TIP3      H1            -18.7237540791        6.1723265260      -13.7284300489  WT01      1703            0.0000000000
      5185      1708  TIP3      H2            -18.0371147304        6.7604058246      -12.5141062094  WT01      1703            0.0000000000
      5186      1709  TIP3      OH2             4.6413551858       -4.4380271643      -11.2228721130  WT01      1704            0.0000000000
      5187      1709  TIP3      H1              3.7441591590       -4.2021063176      -10.9870491821  WT01      1704            0.0000000000
      5188      1709  TIP3      H2              4.7258741985       -4.1743915068      -12.1391605979  WT01      1704            0.0000000000
      5189      1710  TIP3      OH2            18.8159135197        5.7003495218       18.9715419893  WT01      1705            0.0000000000
      5190      1710  TIP3      H1             19.3932362192        6.2521276242       19.4992457295  WT01      1705            0.0000000000
      5191      1710  TIP3      H2             19.3490771710        5.4467387736       18.2181165316  WT01      1705            0.0000000000
      5192      1711  TIP3      OH2            -9.4072810546        0.3225921704      -14.7036374572  WT01      1706            0.0000000000
      5193      1711  TIP3      H1             -9.4886216063        0.3600770462      -13.7506367175  WT01      1706            0.0000000000
      5194      1711  TIP3      H2            -10.0723231646        0.9312220685      -15.0253833975  WT01      1706            0.0000000000
      5195      1712  TIP3      OH2           -11.8853990927        2.2560437483      -12.5766249353  WT01      1707            0.0000000000
      5196      1712  TIP3      H1            -11.9441195958        3.2026063245      -12.4469985384  WT01      1707            0.0000000000
      5197      1712  TIP3      H2            -12.7586657065        1.9998066117      -12.8732387620  WT01      1707            0.0000000000
      5198      1713  TIP3      OH2             6.1596569917        4.4725631536       16.9382862121  WT01      1708            0.0000000000
      5199      1713  TIP3      H1              6.1796273889        3.8252178440       16.2334620890  WT01      1708            0.0000000000
      5200      1713  TIP3      H2              7.0475221468        4.8294746429       16.9615556372  WT01      1708            0.0000000000
      5201      1714  TIP3      OH2            12.2166288550        9.0586522384       14.9166715955  WT01      1709            0.0000000000
      5202      1714  TIP3      H1             12.3767638174        8.5163316849       15.6889908443  WT01      1709            0.0000000000
      5203      1714  TIP3      H2             11.3778241489        9.4849430622       15.0924971042  WT01      1709            0.0000000000
      5204      1715  TIP3      OH2            -4.6093660383        1.0036309933      -10.2983212593  WT01      1710            0.0000000000
      5205      1715  TIP3      H1             -3.9084587960        0.5495758718       -9.8305662000  WT01      1710            0.0000000000
      5206      1715  TIP3      H2             -4.9940899339        1.5883243891       -9.6453641641  WT01      1710            0.0000000000
      5207      1716  TIP3      OH2            14.8304439235       -0.6060409360      -12.6710950944  WT01      1711            0.0000000000
      5208      1716  TIP3      H1             15.7523440415       -0.8544640123      -12.7390506577  WT01      1711            0.0000000000
      5209      1716  TIP3      H2             14.4716861813       -0.7743549595      -13.5424131092  WT01      1711            0.0000000000
      5210      1717  TIP3      OH2            -9.7150972664       -3.8908925883        8.9336541403  WT01      1712            0.0000000000
      5211      1717  TIP3      H1             -9.8741515428       -2.9597095178        9.0880291303  WT01      1712            0.0000000000
      5212      1717  TIP3      H2            -10.3797124469       -4.1449565877        8.2933651765  WT01      1712            0.0000000000
      5213      1718  TIP3      OH2             4.1621451914      -19.8526829787      -10.2311310817  WT01      1713            0.0000000000
      5214      1718  TIP3      H1              4.6782107014      -20.4497251780       -9.6894219229  WT01      1713            0.0000000000
      5215      1718  TIP3      H2              4.3016848928      -20.1600163354      -11.1268468238  WT01      1713            0.0000000000
      5216      1719  TIP3      OH2           -11.3092831011        3.6223957398       -9.0237423007  WT01      1714            0.0000000000
      5217      1719  TIP3      H1            -11.9514230432        4.0249811412       -9.6083901437  WT01      1714            0.0000000000
      5218      1719  TIP3      H2            -10.4614353939        3.8503368873       -9.4050937263  WT01      1714            0.0000000000
      5219      1720  TIP3      OH2            19.2530883928       -8.0335115655      -10.2181662823  WT01      1715            0.0000000000
      5220      1720  TIP3      H1             19.5320983597       -7.3426267860       -9.6172807101  WT01      1715            0.0000000000
      5221      1720  TIP3      H2             18.2968860874       -7.9921874603      -10.2039789430  WT01      1715            0.0000000000
      5222      1721  TIP3      OH2            -3.5598527879        9.5903980374      -17.7799392078  WT01      1716            0.0000000000
      5223      1721  TIP3      H1             -3.8529438427        8.9014340529      -18.3763099589  WT01      1716            0.0000000000
      5224      1721  TIP3      H2             -3.6905541434        9.2228070580      -16.9058534920  WT01      1716            0.0000000000
      5225      1722  TIP3      OH2             3.9564022834        6.6758761578        8.7428158880  WT01      1717            0.0000000000
      5226      1722  TIP3      H1              3.9585817614        6.8843125841        7.8085882300  WT01      1717            0.0000000000
      5227      1722  TIP3      H2              3.1597310967        7.0867865442        9.0785233286  WT01      1717            0.0000000000
      5228      1723  TIP3      OH2            17.8385764929        2.8758463446       15.2872609565  WT01      1718            0.0000000000
      5229      1723  TIP3      H1             16.9751889560        2.7679627958       14.8883187150  WT01      1718            0.0000000000
      5230      1723  TIP3      H2             18.4211565757        2.3425832393       14.7464627327  WT01      1718            0.0000000000
      5231      1724  TIP3      OH2             0.5249572430       12.3755077574      -15.0719032252  WT01      1719            0.0000000000
      5232      1724  TIP3      H1             -0.3681048777       12.0767246582      -15.2433690214  WT01      1719            0.0000000000
      5233      1724  TIP3      H2              0.7987035056       12.7943927789      -15.8878873755  WT01      1719            0.0000000000
      5234      1725  TIP3      OH2            15.7138339310       16.0251601691       -8.4433726537  WT01      1720            0.0000000000
      5235      1725  TIP3      H1             16.3271093224       16.7400938512       -8.6136516472  WT01      1720            0.0000000000
      5236      1725  TIP3      H2             16.2321215979       15.3708403904       -7.9748907089  WT01      1720            0.0000000000
      5237      1726  TIP3      OH2            12.2320490733      -18.6688805762       17.0526904200  WT01      1721            0.0000000000
      5238      1726  TIP3      H1             11.8905780255      -18.8825930684       16.1843838468  WT01      1721            0.0000000000
      5239      1726  TIP3      H2             11.4539907243      -18.4755326487       17.5756374494  WT01      1721            0.0000000000
      5240      1727  TIP3      OH2            19.1562743517       -6.0585997733       18.4991533825  WT01      1722            0.0000000000
      5241      1727  TIP3      H1             18.2404930581       -6.3359293903       18.4733712797  WT01      1722            0.0000000000
      5242      1727  TIP3      H2             19.1210224646       -5.1380505596       18.7591115726  WT01      1722            0.0000000000
      5243      1728  TIP3      OH2             8.8071020368        7.0817374321      -18.0664463120  WT01      1723            0.0000000000
      5244      1728  TIP3      H1              8.4734472142        6.2392507516      -17.7580270135  WT01      1723            0.0000000000
      5245      1728  TIP3      H2              9.1364020186        6.9016346102      -18.9469895003  WT01      1723            0.0000000000
      5246      1729  TIP3      OH2           -19.1910619666       12.3259408633       12.2537027446  WT01      1724            0.0000000000
      5247      1729  TIP3      H1            -18.4508597437       12.6316987572       12.7779589706  WT01      1724            0.0000000000
      5248      1729  TIP3      H2            -19.5734034752       13.1243994749       11.8896826524  WT01      1724            0.0000000000
      5249      1730  TIP3      OH2            -4.1379358633       10.4906411430       -8.3826488058  WT01      1725            0.0000000000
      5250      1730  TIP3      H1             -3.6569999301       10.5738467429       -9.2060619871  WT01      1725            0.0000000000
      5251      1730  TIP3      H2             -5.0471075485       10.6785884730       -8.6157034326  WT01      1725            0.0000000000
      5252      1731  TIP3      OH2            11.2094610511       14.0589766100      -14.3686647966  WT01      1726            0.0000000000
      5253      1731  TIP3      H1             10.3072841647       14.1886631845      -14.0762779484  WT01      1726            0.0000000000
      5254      1731  TIP3      H2             11.2860128301       14.5969002590      -15.1567065367  WT01      1726            0.0000000000
      5255      1732  TIP3      OH2           -11.7237798471       13.5277335345       15.5874325125  WT01      1727            0.0000000000
      5256      1732  TIP3      H1            -11.0782715414       12.8354748731       15.7300115577  WT01      1727            0.0000000000
      5257      1732  TIP3      H2            -11.6546105266       13.7319867981       14.6548404149  WT01      1727            0.0000000000
      5258      1733  TIP3      OH2             8.4923945144        8.9785411572      -16.1149527948  WT01      1728            0.0000000000
      5259      1733  TIP3      H1              7.6156276945        8.8434005431      -15.7554409464  WT01      1728            0.0000000000
      5260      1733  TIP3      H2              8.6958776703        8.1590121792      -16.5657284268  WT01      1728            0.0000000000
      5261      1734  TIP3      OH2             1.4117348844       -8.6902038717      -13.1960916784  WT01      1729            0.0000000000
      5262      1734  TIP3      H1              2.1286440014       -8.4197325277      -13.7697800791  WT01      1729            0.0000000000
      5263      1734  TIP3      H2              0.6817021006       -8.1210069857      -13.4396052316  WT01      1729            0.0000000000
      5264      1735  TIP3      OH2           -17.3674895840       -1.9905761145       13.1186875473  WT01      1730            0.0000000000
      5265      1735  TIP3      H1            -17.6012798616       -1.6377760955       12.2601387347  WT01      1730            0.0000000000
      5266      1735  TIP3      H2            -18.0417316296       -2.6451259581       13.3008796909  WT01      1730            0.0000000000
      5267      1736  TIP3      OH2           -18.9025402446       11.2204325432       -8.1467090733  WT01      1731            0.0000000000
      5268      1736  TIP3      H1            -19.7316917985       11.3233653225       -7.6796498108  WT01      1731            0.0000000000
      5269      1736  TIP3      H2            -18.8482990386       11.9909340765       -8.7120559490  WT01      1731            0.0000000000
      5270      1737  TIP3      OH2             9.6617290231      -10.5873147855      -15.7441443066  WT01      1732            0.0000000000
      5271      1737  TIP3      H1              9.3029034131      -11.0714944326      -16.4878149743  WT01      1732            0.0000000000
      5272      1737  TIP3      H2              8.9580345562       -9.9936394632      -15.4822368420  WT01      1732            0.0000000000
      5273      1738  TIP3      OH2            -2.9197839825       14.5454071135       -6.3854348157  WT01      1733            0.0000000000
      5274      1738  TIP3      H1             -3.0058328727       13.8418726164       -5.7421101612  WT01      1733            0.0000000000
      5275      1738  TIP3      H2             -3.1262170127       15.3429072674       -5.8979815158  WT01      1733            0.0000000000
      5276      1739  TIP3      OH2            14.0299996341       17.1908453661      -12.3062376606  WT01      1734            0.0000000000
      5277      1739  TIP3      H1             13.8596462254       16.3474827059      -11.8867725838  WT01      1734            0.0000000000
      5278      1739  TIP3      H2             13.2478192761       17.7117240695      -12.1242731725  WT01      1734            0.0000000000
      5279      1740  TIP3      OH2           -17.6530612424      -10.7885707811      -17.6535153499  WT01      1735            0.0000000000
      5280      1740  TIP3      H1            -17.6933455733      -10.1403312925      -18.3566473070  WT01      1735            0.0000000000
      5281      1740  TIP3      H2            -17.0438274247      -10.4146069941      -17.0169487372  WT01      1735            0.0000000000
      5282      1741  TIP3      OH2           -16.5376480445        9.3850896641       -9.5304858260  WT01      1736            0.0000000000
      5283      1741  TIP3      H1            -15.7861768553        8.8570985941       -9.8002047405  WT01      1736            0.0000000000
      5284      1741  TIP3      H2            -16.8156946942        9.8326556882      -10.3296144301  WT01      1736            0.0000000000
      5285      1742  TIP3      OH2            11.6348698240        7.2104309264        1.4782513267  WT01      1737            0.0000000000
      5286      1742  TIP3      H1             11.7864632824        8.1438589367        1.6264518122  WT01      1737            0.0000000000
      5287      1742  TIP3      H2             10.9286860806        7.1815104815        0.8327283299  WT01      1737            0.0000000000
      5288      1743  TIP3      OH2           -18.5278980094        4.6403242987      -16.2546182314  WT01      1738            0.0000000000
      5289      1743  TIP3      H1            -19.2806348037        5.0845456792      -16.6448572539  WT01      1738            0.0000000000
      5290      1743  TIP3      H2            -18.1869096316        5.2641033987      -15.6136358824  WT01      1738            0.0000000000
      5291      1744  TIP3      OH2            13.6290795566        5.6949112129        9.3519794735  WT01      1739            0.0000000000
      5292      1744  TIP3      H1             14.2367578960        5.8366168007        8.6261155928  WT01      1739            0.0000000000
      5293      1744  TIP3      H2             13.8837613960        6.3434776538       10.0082801237  WT01      1739            0.0000000000
      5294      1745  TIP3      OH2            -8.0924371864       -4.1945594184      -13.5509022084  WT01      1740            0.0000000000
      5295      1745  TIP3      H1             -7.8513925194       -4.9421437423      -13.0038675127  WT01      1740            0.0000000000
      5296      1745  TIP3      H2             -7.6064278983       -4.3262516316      -14.3649562262  WT01      1740            0.0000000000
      5297      1746  TIP3      OH2             8.8232981207        6.3450992110      -10.9493315489  WT01      1741            0.0000000000
      5298      1746  TIP3      H1              8.4324836219        6.6310502147      -10.1236634182  WT01      1741            0.0000000000
      5299      1746  TIP3      H2              8.3708089194        6.8576535998      -11.6192370141  WT01      1741            0.0000000000
      5300      1747  TIP3      OH2             3.0001878038       -0.5443224332      -15.1970281065  WT01      1742            0.0000000000
      5301      1747  TIP3      H1              2.6041748620        0.0062660133      -14.5215594369  WT01      1742            0.0000000000
      5302      1747  TIP3      H2              2.8165862011       -1.4402468748      -14.9144654454  WT01      1742            0.0000000000
      5303      1748  TIP3      OH2             3.3137095268       14.9837596838        7.2064175429  WT01      1743            0.0000000000
      5304      1748  TIP3      H1              3.9439516812       14.6363329751        6.5752905194  WT01      1743            0.0000000000
      5305      1748  TIP3      H2              3.7546493127       14.9076812094        8.0525948187  WT01      1743            0.0000000000
      5306      1749  TIP3      OH2            -6.4423375481        9.1732294598      -15.4154017870  WT01      1744            0.0000000000
      5307      1749  TIP3      H1             -6.6108352493        9.6699193576      -16.2161136460  WT01      1744            0.0000000000
      5308      1749  TIP3      H2             -7.1511773322        8.5310806627      -15.3776805215  WT01      1744            0.0000000000
      5309      1750  TIP3      OH2             0.2786311517       -7.7753310900       -7.6893893164  WT01      1745            0.0000000000
      5310      1750  TIP3      H1             -0.5647941031       -7.9239326295       -8.1169208744  WT01      1745            0.0000000000
      5311      1750  TIP3      H2              0.0524228731       -7.5119104581       -6.7973852825  WT01      1745            0.0000000000
      5312      1751  TIP3      OH2            16.9766088728       13.2349098068       12.3326330902  WT01      1746            0.0000000000
      5313      1751  TIP3      H1             16.5772570502       13.9933719853       12.7586437199  WT01      1746            0.0000000000
      5314      1751  TIP3      H2             17.2427000776       13.5560640102       11.4710721467  WT01      1746            0.0000000000
      5315      1752  TIP3      OH2             6.2636240645       13.7017691521      -12.1025442144  WT01      1747            0.0000000000
      5316      1752  TIP3      H1              5.4771256061       13.7552825941      -12.6454883161  WT01      1747            0.0000000000
      5317      1752  TIP3      H2              6.0360274227       13.0803057845      -11.4110134036  WT01      1747            0.0000000000
      5318      1753  TIP3      OH2            -8.6581689683        0.3487643945       -7.6995170710  WT01      1748            0.0000000000
      5319      1753  TIP3      H1             -9.4765224699        0.5094477628       -8.1693151261  WT01      1748            0.0000000000
      5320      1753  TIP3      H2             -8.2033530156       -0.3076019589       -8.2273025108  WT01      1748            0.0000000000
      5321      1754  TIP3      OH2           -12.6218248556        2.0098621873       13.2170607822  WT01      1749            0.0000000000
      5322      1754  TIP3      H1            -11.8012704869        2.3645992510       12.8748854548  WT01      1749            0.0000000000
      5323      1754  TIP3      H2            -12.9770721586        2.7109919531       13.7633649247  WT01      1749            0.0000000000
      5324      1755  TIP3      OH2             7.3729817726        3.7203580008        9.5636737099  WT01      1750            0.0000000000
      5325      1755  TIP3      H1              6.4891955418        3.6910560297        9.9301366734  WT01      1750            0.0000000000
      5326      1755  TIP3      H2              7.5564298270        4.6533730646        9.4538487892  WT01      1750            0.0000000000
      5327      1756  TIP3      OH2             4.3250584173        6.9939898660        6.1660283228  WT01      1751            0.0000000000
      5328      1756  TIP3      H1              4.0434767956        6.4695451580        5.4164275293  WT01      1751            0.0000000000
      5329      1756  TIP3      H2              4.6270728910        7.8175198053        5.7828605949  WT01      1751            0.0000000000
      5330      1757  TIP3      OH2            14.7075466518        4.5615580350       -2.6198020632  WT01      1752            0.0000000000
      5331      1757  TIP3      H1             14.4131926149        5.4611049802       -2.7626404520  WT01      1752            0.0000000000
      5332      1757  TIP3      H2             14.2480656991        4.2815417948       -1.8281582226  WT01      1752            0.0000000000
      5333      1758  TIP3      OH2            13.6249762639      -10.3921691300      -13.3401803731  WT01      1753            0.0000000000
      5334      1758  TIP3      H1             14.0949285079      -10.9855230404      -13.9261051434  WT01      1753            0.0000000000
      5335      1758  TIP3      H2             12.7112408784      -10.4537817086      -13.6186105195  WT01      1753            0.0000000000
      5336      1759  TIP3      OH2           -10.8949140542        0.7660805061       15.6766919933  WT01      1754            0.0000000000
      5337      1759  TIP3      H1            -10.4357091327        1.3433903200       15.0667116413  WT01      1754            0.0000000000
      5338      1759  TIP3      H2            -11.3075010534        0.1067948041       15.1187079950  WT01      1754            0.0000000000
      5339      1760  TIP3      OH2            17.6246437580        2.6072872870        4.4518163804  WT01      1755            0.0000000000
      5340      1760  TIP3      H1             17.0695212211        2.5132577143        5.2259153531  WT01      1755            0.0000000000
      5341      1760  TIP3      H2             18.1722471045        3.3694042921        4.6403370857  WT01      1755            0.0000000000
      5342      1761  TIP3      OH2            17.8424314596       17.4831099063       15.0932035780  WT01      1756            0.0000000000
      5343      1761  TIP3      H1             18.1604770609       18.3524433861       14.8496094331  WT01      1756            0.0000000000
      5344      1761  TIP3      H2             16.9286099059       17.6227673964       15.3415133935  WT01      1756            0.0000000000
      5345      1762  TIP3      OH2            12.8744816930       13.5485498461       18.8190948124  WT01      1757            0.0000000000
      5346      1762  TIP3      H1             13.7194288933       13.9510756331       18.6184233633  WT01      1757            0.0000000000
      5347      1762  TIP3      H2             12.5083523271       14.0936259752       19.5155667156  WT01      1757            0.0000000000
      5348      1763  TIP3      OH2            12.4023967331       -2.2043440696       -0.3466995454  WT01      1758            0.0000000000
      5349      1763  TIP3      H1             12.8994891320       -2.7361109312       -0.9682741289  WT01      1758            0.0000000000
      5350      1763  TIP3      H2             13.0080737964       -1.5103051313       -0.0865129621  WT01      1758            0.0000000000
      5351      1764  TIP3      OH2            15.3576548315       17.2758568981       19.4187845262  WT01      1759            0.0000000000
      5352      1764  TIP3      H1             15.3365781857       18.2161110483       19.2407122960  WT01      1759            0.0000000000
      5353      1764  TIP3      H2             15.7263692376       16.8893796783       18.6244817776  WT01      1759            0.0000000000
      5354      1765  TIP3      OH2            -3.9476748983        8.4285366132      -15.2257454466  WT01      1760            0.0000000000
      5355      1765  TIP3      H1             -3.7809336916        7.8304053193      -14.4972757244  WT01      1760            0.0000000000
      5356      1765  TIP3      H2             -4.8927881438        8.5782696189      -15.2018123880  WT01      1760            0.0000000000
      5357      1766  TIP3      OH2            17.3404793467       -4.8155208241      -17.0916014030  WT01      1761            0.0000000000
      5358      1766  TIP3      H1             16.6247307086       -5.4471148119      -17.0207160533  WT01      1761            0.0000000000
      5359      1766  TIP3      H2             17.1791168353       -4.1897064383      -16.3855204548  WT01      1761            0.0000000000
      5360      1767  TIP3      OH2           -14.0072653514       -3.1666263945      -16.3389559553  WT01      1762            0.0000000000
      5361      1767  TIP3      H1            -13.7530954818       -3.7578919831      -15.6304120313  WT01      1762            0.0000000000
      5362      1767  TIP3      H2            -13.5988191381       -2.3311025367      -16.1124534499  WT01      1762            0.0000000000
      5363      1768  TIP3      OH2           -17.0957140500       -3.6417485962        7.2780881645  WT01      1763            0.0000000000
      5364      1768  TIP3      H1            -16.6083046483       -4.2590523539        7.8236153928  WT01      1763            0.0000000000
      5365      1768  TIP3      H2            -17.9158448136       -3.4995008158        7.7507221779  WT01      1763            0.0000000000
      5366      1769  TIP3      OH2           -17.2345573943        9.2132668591      -12.2941714944  WT01      1764            0.0000000000
      5367      1769  TIP3      H1            -16.9243480282        8.4258078053      -11.8470583110  WT01      1764            0.0000000000
      5368      1769  TIP3      H2            -16.5940358109        9.3624089505      -12.9896717092  WT01      1764            0.0000000000
      5369      1770  TIP3      OH2            12.5936791123        0.3716521358      -11.5699737211  WT01      1765            0.0000000000
      5370      1770  TIP3      H1             12.5783180028        1.2638154892      -11.9164421874  WT01      1765            0.0000000000
      5371      1770  TIP3      H2             13.4103279826       -0.0008807799      -11.9024427578  WT01      1765            0.0000000000
      5372      1771  TIP3      OH2           -19.6484188661        6.2273301511       -8.9016642756  WT01      1766            0.0000000000
      5373      1771  TIP3      H1            -19.8126252788        7.1389428021       -8.6603544338  WT01      1766            0.0000000000
      5374      1771  TIP3      H2            -20.4503721288        5.9477640281       -9.3431906715  WT01      1766            0.0000000000
      5375      1772  TIP3      OH2           -14.5277957263       10.1735355417       19.8296462722  WT01      1767            0.0000000000
      5376      1772  TIP3      H1            -13.8562626834        9.4918530346       19.8538153186  WT01      1767            0.0000000000
      5377      1772  TIP3      H2            -14.1890443984       10.8644119661       20.3990047841  WT01      1767            0.0000000000
      5378      1773  TIP3      OH2            12.6400747901       12.7419136500      -17.5541781955  WT01      1768            0.0000000000
      5379      1773  TIP3      H1             12.0482014231       13.4938691500      -17.5761020305  WT01      1768            0.0000000000
      5380      1773  TIP3      H2             13.5079196302       13.1233787512      -17.4216583063  WT01      1768            0.0000000000
      5381      1774  TIP3      OH2           -11.4596574704       -0.0661915881       -2.6022943150  WT01      1769            0.0000000000
      5382      1774  TIP3      H1            -12.0830787429       -0.6491407856       -2.1689953870  WT01      1769            0.0000000000
      5383      1774  TIP3      H2            -11.9206989879        0.2406027997       -3.3830309760  WT01      1769            0.0000000000
      5384      1775  TIP3      OH2           -16.1333053293        3.9010557194       -5.9947357458  WT01      1770            0.0000000000
      5385      1775  TIP3      H1            -15.8687631796        3.2619283630       -6.6563742304  WT01      1770            0.0000000000
      5386      1775  TIP3      H2            -15.9394375037        4.7506636763       -6.3907324590  WT01      1770            0.0000000000
      5387      1776  TIP3      OH2            10.3767182729       -4.7014724123        9.9807368488  WT01      1771            0.0000000000
      5388      1776  TIP3      H1              9.7103564302       -5.3758885297       10.1124813222  WT01      1771            0.0000000000
      5389      1776  TIP3      H2             11.2085603257       -5.1586012627       10.1044454760  WT01      1771            0.0000000000
      5390      1777  TIP3      OH2            10.3036550932       -5.0773034849       19.5957870955  WT01      1772            0.0000000000
      5391      1777  TIP3      H1              9.6328689763       -4.6953794027       19.0297378116  WT01      1772            0.0000000000
      5392      1777  TIP3      H2             11.1287807881       -4.7268201476       19.2602862328  WT01      1772            0.0000000000
      5393      1778  TIP3      OH2             6.1060913438        2.2999799654      -15.5919326063  WT01      1773            0.0000000000
      5394      1778  TIP3      H1              6.6980455994        2.6418607436      -14.9219031264  WT01      1773            0.0000000000
      5395      1778  TIP3      H2              5.9479398636        3.0430639747      -16.1742092377  WT01      1773            0.0000000000
      5396      1779  TIP3      OH2            -0.4351391765        3.4152793289        9.2136209045  WT01      1774            0.0000000000
      5397      1779  TIP3      H1             -1.0163121249        3.8377269230        9.8460826388  WT01      1774            0.0000000000
      5398      1779  TIP3      H2              0.2661195340        3.0394726014        9.7458213701  WT01      1774            0.0000000000
      5399      1780  TIP3      OH2           -15.4137087356      -15.5366387576      -11.2251911450  WT01      1775            0.0000000000
      5400      1780  TIP3      H1            -16.0597450028      -15.3680984353      -11.9110942812  WT01      1775            0.0000000000
      5401      1780  TIP3      H2            -14.6054669903      -15.7316692817      -11.6994697414  WT01      1775            0.0000000000
      5402      1781  TIP3      OH2           -19.1743017878       -6.8645184129       -1.1778283041  WT01      1776            0.0000000000
      5403      1781  TIP3      H1            -19.6780822822       -7.6300524648       -0.9014325012  WT01      1776            0.0000000000
      5404      1781  TIP3      H2            -19.6789902919       -6.4936790364       -1.9017063889  WT01      1776            0.0000000000
      5405      1782  TIP3      OH2           -13.8689671859       -1.5706474607       -1.6711792906  WT01      1777            0.0000000000
      5406      1782  TIP3      H1            -14.1888367006       -0.7785376785       -1.2393490026  WT01      1777            0.0000000000
      5407      1782  TIP3      H2            -14.6545904477       -1.9806257646       -2.0330434805  WT01      1777            0.0000000000
      5408      1783  TIP3      OH2             9.3503452615        2.1182041023       10.5391397615  WT01      1778            0.0000000000
      5409      1783  TIP3      H1             10.1892724688        2.3960163559       10.1713717592  WT01      1778            0.0000000000
      5410      1783  TIP3      H2              8.7113123190        2.7238358572       10.1635350666  WT01      1778            0.0000000000
      5411      1784  TIP3      OH2            -1.5478739439       13.9724020096      -11.6709705309  WT01      1779            0.0000000000
      5412      1784  TIP3      H1             -0.6786745489       13.7190602547      -11.3602581590  WT01      1779            0.0000000000
      5413      1784  TIP3      H2             -1.5757535679       14.9224622541      -11.5576565009  WT01      1779            0.0000000000
      5414      1785  TIP3      OH2             4.9614628826      -13.8519803818       19.3626170464  WT01      1780            0.0000000000
      5415      1785  TIP3      H1              5.3588893090      -14.6117019209       18.9370500954  WT01      1780            0.0000000000
      5416      1785  TIP3      H2              4.8111398010      -14.1337193672       20.2649794605  WT01      1780            0.0000000000
      5417      1786  TIP3      OH2            14.8771595158       -0.8528380117        6.6855895082  WT01      1781            0.0000000000
      5418      1786  TIP3      H1             15.5049995944       -0.1459158702        6.8349539371  WT01      1781            0.0000000000
      5419      1786  TIP3      H2             15.3800777524       -1.6546391612        6.8284879867  WT01      1781            0.0000000000
      5420      1787  TIP3      OH2           -18.1966475012        8.3202479169       -6.9512696767  WT01      1782            0.0000000000
      5421      1787  TIP3      H1            -18.3153464240        7.5587500187       -6.3835872586  WT01      1782            0.0000000000
      5422      1787  TIP3      H2            -18.9183925356        8.2673583699       -7.5777827349  WT01      1782            0.0000000000
      5423      1788  TIP3      OH2            -6.1533137452       -6.8551416947       -7.7021496901  WT01      1783            0.0000000000
      5424      1788  TIP3      H1             -6.7350187978       -7.6056745497       -7.5815201893  WT01      1783            0.0000000000
      5425      1788  TIP3      H2             -5.3200822890       -7.1338204289       -7.3222874591  WT01      1783            0.0000000000
      5426      1789  TIP3      OH2           -10.8036051638      -13.7806765731        7.3212938053  WT01      1784            0.0000000000
      5427      1789  TIP3      H1            -11.0405838419      -13.1755799365        6.6184915732  WT01      1784            0.0000000000
      5428      1789  TIP3      H2            -11.6387230426      -14.1412024174        7.6193391963  WT01      1784            0.0000000000
      5429      1790  TIP3      OH2            18.1816781535        7.0409454824        5.0621159000  WT01      1785            0.0000000000
      5430      1790  TIP3      H1             18.2584431431        6.3852389905        5.7552161409  WT01      1785            0.0000000000
      5431      1790  TIP3      H2             18.7471873846        6.7166228140        4.3612265170  WT01      1785            0.0000000000
      5432      1791  TIP3      OH2           -13.0155657291       11.7240577639       13.2588419540  WT01      1786            0.0000000000
      5433      1791  TIP3      H1            -13.4374684338       12.4065969520       12.7369509926  WT01      1786            0.0000000000
      5434      1791  TIP3      H2            -12.4752359688       11.2425193985       12.6324264659  WT01      1786            0.0000000000
      5435      1792  TIP3      OH2             1.6326558670        3.1671304799       -7.2560659969  WT01      1787            0.0000000000
      5436      1792  TIP3      H1              1.3976324086        2.6781087143       -8.0446428783  WT01      1787            0.0000000000
      5437      1792  TIP3      H2              1.0859183046        3.9521460682       -7.2886293982  WT01      1787            0.0000000000
      5438      1793  TIP3      OH2             7.3377333968      -12.1408259031        7.1167115748  WT01      1788            0.0000000000
      5439      1793  TIP3      H1              6.8598289437      -11.3963738568        6.7511567970  WT01      1788            0.0000000000
      5440      1793  TIP3      H2              8.2597685507      -11.9290279118        6.9710249352  WT01      1788            0.0000000000
      5441      1794  TIP3      OH2            14.6669243016        2.2792707117        8.7710268945  WT01      1789            0.0000000000
      5442      1794  TIP3      H1             15.0287090123        2.9380739261        9.3637510790  WT01      1789            0.0000000000
      5443      1794  TIP3      H2             15.3311420084        1.5905839141        8.7435106462  WT01      1789            0.0000000000
      5444      1795  TIP3      OH2            12.4507600855        5.4306278949        3.5424164435  WT01      1790            0.0000000000
      5445      1795  TIP3      H1             12.1738492250        6.2039615443        3.0509825689  WT01      1790            0.0000000000
      5446      1795  TIP3      H2             11.6333583750        5.0204811863        3.8250220556  WT01      1790            0.0000000000
      5447      1796  TIP3      OH2            17.1072500999        1.3841718609      -11.9851740162  WT01      1791            0.0000000000
      5448      1796  TIP3      H1             16.9794084913        1.1274943657      -12.8984127569  WT01      1791            0.0000000000
      5449      1796  TIP3      H2             17.7266514858        2.1128526956      -12.0251487002  WT01      1791            0.0000000000
      5450      1797  TIP3      OH2            15.3689271900        7.2077961218       -2.3884008403  WT01      1792            0.0000000000
      5451      1797  TIP3      H1             14.7615196893        7.6975403180       -1.8339294150  WT01      1792            0.0000000000
      5452      1797  TIP3      H2             15.8474379824        6.6440567736       -1.7805709464  WT01      1792            0.0000000000
      5453      1798  TIP3      OH2            16.3564755159       -0.7807970556       14.2359861119  WT01      1793            0.0000000000
      5454      1798  TIP3      H1             16.1368158874        0.1394285247       14.3814726748  WT01      1793            0.0000000000
      5455      1798  TIP3      H2             16.5357741904       -0.8392610037       13.2975481741  WT01      1793            0.0000000000
      5456      1799  TIP3      OH2           -16.3471619618      -12.3513670510       -3.6484709700  WT01      1794            0.0000000000
      5457      1799  TIP3      H1            -15.7368933877      -12.3356903265       -2.9112068933  WT01      1794            0.0000000000
      5458      1799  TIP3      H2            -15.9517868278      -11.7718103700       -4.2996425050  WT01      1794            0.0000000000
      5459      1800  TIP3      OH2            12.7646372767       -7.4716338210      -12.9075089624  WT01      1795            0.0000000000
      5460      1800  TIP3      H1             12.8907314916       -7.6128543613      -13.8457993327  WT01      1795            0.0000000000
      5461      1800  TIP3      H2             11.9354283977       -7.9064989647      -12.7086704529  WT01      1795            0.0000000000
      5462      1801  TIP3      OH2            16.4728723598       11.8744581492       17.7306602072  WT01      1796            0.0000000000
      5463      1801  TIP3      H1             17.0631493481       12.2755679036       18.3685597707  WT01      1796            0.0000000000
      5464      1801  TIP3      H2             16.7856705452       12.1898647148       16.8827758964  WT01      1796            0.0000000000
      5465      1802  TIP3      OH2            16.8112770567        0.5485191149        8.1182755903  WT01      1797            0.0000000000
      5466      1802  TIP3      H1             17.6980584168        0.9051083356        8.0663645307  WT01      1797            0.0000000000
      5467      1802  TIP3      H2             16.9310282749       -0.3477894376        8.4321584276  WT01      1797            0.0000000000
      5468      1803  TIP3      OH2           -13.8792382445      -11.3310491817        6.8266605254  WT01      1798            0.0000000000
      5469      1803  TIP3      H1            -12.9443806992      -11.5336419467        6.8617226506  WT01      1798            0.0000000000
      5470      1803  TIP3      H2            -13.9146189559      -10.3857594157        6.6803482751  WT01      1798            0.0000000000
      5471      1804  TIP3      OH2            15.1655870079       -7.9009612031        1.1492957226  WT01      1799            0.0000000000
      5472      1804  TIP3      H1             14.5183620377       -7.4852727595        1.7189752525  WT01      1799            0.0000000000
      5473      1804  TIP3      H2             15.8253675375       -7.2234556288        1.0012833567  WT01      1799            0.0000000000
      5474      1805  TIP3      OH2            10.7039181000        1.6146088170        1.4520743828  WT01      1800            0.0000000000
      5475      1805  TIP3      H1             10.1295635350        0.8500099952        1.4103936140  WT01      1800            0.0000000000
      5476      1805  TIP3      H2             11.0100715928        1.7340777630        0.5530587985  WT01      1800            0.0000000000
      5477      1806  TIP3      OH2           -19.9139235397       -4.1897585630       -0.2698952907  WT01      1801            0.0000000000
      5478      1806  TIP3      H1            -20.4018703298       -4.8504703974        0.2216325447  WT01      1801            0.0000000000
      5479      1806  TIP3      H2            -19.3513703238       -4.6945005161       -0.8572633620  WT01      1801            0.0000000000
      5480      1807  TIP3      OH2           -18.5456561835        3.7776382926       -8.5591759176  WT01      1802            0.0000000000
      5481      1807  TIP3      H1            -19.1220231357        4.5224631449       -8.7302574385  WT01      1802            0.0000000000
      5482      1807  TIP3      H2            -18.1941270475        3.9422220121       -7.6842066171  WT01      1802            0.0000000000
      5483      1808  TIP3      OH2           -11.1404167824        1.9747712374      -15.7491442315  WT01      1803            0.0000000000
      5484      1808  TIP3      H1            -11.5713365130        1.3789976249      -16.3620013105  WT01      1803            0.0000000000
      5485      1808  TIP3      H2            -11.8527977315        2.4986845692      -15.3827291456  WT01      1803            0.0000000000
      5486      1809  TIP3      OH2           -14.6863870923       -6.4861983316       -2.5700084277  WT01      1804            0.0000000000
      5487      1809  TIP3      H1            -14.2082515072       -6.3845434138       -1.7470354932  WT01      1804            0.0000000000
      5488      1809  TIP3      H2            -14.2447696150       -7.2086050941       -3.0164771101  WT01      1804            0.0000000000
      5489      1810  TIP3      OH2            14.4575426408        9.6258905609        8.0096695756  WT01      1805            0.0000000000
      5490      1810  TIP3      H1             14.2400964199        9.4070760548        7.1035409070  WT01      1805            0.0000000000
      5491      1810  TIP3      H2             15.2404096459        9.1090906097        8.2001134619  WT01      1805            0.0000000000
      5492      1811  TIP3      OH2            17.3013819989       12.1343832856       -0.5410114277  WT01      1806            0.0000000000
      5493      1811  TIP3      H1             16.5463643258       12.6241838522       -0.8670107057  WT01      1806            0.0000000000
      5494      1811  TIP3      H2             17.3555880886       11.3685038307       -1.1126075889  WT01      1806            0.0000000000
      5495      1812  TIP3      OH2            -7.4395309827       -9.3645933733       10.5175544623  WT01      1807            0.0000000000
      5496      1812  TIP3      H1             -8.1713362095       -9.8164922275       10.0974588223  WT01      1807            0.0000000000
      5497      1812  TIP3      H2             -6.9752546908      -10.0520627283       10.9951162088  WT01      1807            0.0000000000
      5498      1813  TIP3      OH2             6.5294895419      -16.9207771948        6.7210686060  WT01      1808            0.0000000000
      5499      1813  TIP3      H1              6.8353689302      -16.6877525409        7.5976352730  WT01      1808            0.0000000000
      5500      1813  TIP3      H2              6.1836065245      -16.1034780233        6.3624339540  WT01      1808            0.0000000000
      5501      1814  TIP3      OH2             6.5301725666        2.2167357690        1.7348055662  WT01      1809            0.0000000000
      5502      1814  TIP3      H1              6.3839063940        2.6902008170        2.5537493165  WT01      1809            0.0000000000
      5503      1814  TIP3      H2              7.0668985113        1.4646844030        1.9849571486  WT01      1809            0.0000000000
      5504      1815  TIP3      OH2           -12.6744081744      -14.0749502036      -15.3135532485  WT01      1810            0.0000000000
      5505      1815  TIP3      H1            -11.7240482866      -13.9721851042      -15.2636811223  WT01      1810            0.0000000000
      5506      1815  TIP3      H2            -12.8031821536      -14.8638560966      -15.8401238186  WT01      1810            0.0000000000
      5507      1816  TIP3      OH2             3.1232262398       -1.4532570914       -6.1054723873  WT01      1811            0.0000000000
      5508      1816  TIP3      H1              3.1991081323       -1.7935106479       -6.9969325752  WT01      1811            0.0000000000
      5509      1816  TIP3      H2              3.9350664495       -1.7226610117       -5.6758576613  WT01      1811            0.0000000000
      5510      1817  TIP3      OH2           -19.4824305413       -6.7780433419        9.0205975507  WT01      1812            0.0000000000
      5511      1817  TIP3      H1            -19.3138457857       -5.9652908791        8.5438959402  WT01      1812            0.0000000000
      5512      1817  TIP3      H2            -20.2785293139       -6.6015257931        9.5218959750  WT01      1812            0.0000000000
      5513      1818  TIP3      OH2            -2.8916210413        1.4739542510       13.2339053801  WT01      1813            0.0000000000
      5514      1818  TIP3      H1             -3.0952026617        1.0182571017       12.4171272934  WT01      1813            0.0000000000
      5515      1818  TIP3      H2             -1.9887967595        1.7722691654       13.1236858763  WT01      1813            0.0000000000
      5516      1819  TIP3      OH2           -17.2430317884      -15.9409132938       -1.8425369929  WT01      1814            0.0000000000
      5517      1819  TIP3      H1            -17.9778650926      -15.9903452528       -2.4539356415  WT01      1814            0.0000000000
      5518      1819  TIP3      H2            -17.4427672010      -16.5959860812       -1.1737939786  WT01      1814            0.0000000000
      5519      1820  TIP3      OH2            15.1126034606        6.8635250868       -7.7841955029  WT01      1815            0.0000000000
      5520      1820  TIP3      H1             15.2103222733        6.8958293940       -6.8325446864  WT01      1815            0.0000000000
      5521      1820  TIP3      H2             14.2064695079        6.5881451686       -7.9231882059  WT01      1815            0.0000000000
      5522      1821  TIP3      OH2           -13.2805978346       17.7925694417        1.3508925855  WT01      1816            0.0000000000
      5523      1821  TIP3      H1            -14.0612616497       18.1107532364        0.8975109674  WT01      1816            0.0000000000
      5524      1821  TIP3      H2            -13.2250799898       16.8671861623        1.1125328446  WT01      1816            0.0000000000
      5525      1822  TIP3      OH2            -0.3947415050      -10.4426453208        0.6785369682  WT01      1817            0.0000000000
      5526      1822  TIP3      H1             -0.8096755655      -10.3592472365        1.5370859161  WT01      1817            0.0000000000
      5527      1822  TIP3      H2              0.0067532613      -11.3115040032        0.6894160129  WT01      1817            0.0000000000
      5528      1823  TIP3      OH2            16.5070431406       -5.7692163027        4.2874070968  WT01      1818            0.0000000000
      5529      1823  TIP3      H1             17.1397016144       -5.7113718652        3.5714258907  WT01      1818            0.0000000000
      5530      1823  TIP3      H2             16.7999365291       -6.5181761771        4.8065452100  WT01      1818            0.0000000000
      5531      1824  TIP3      OH2             3.6972015230        0.3254867911      -17.8133074879  WT01      1819            0.0000000000
      5532      1824  TIP3      H1              3.6488749895        0.0960640391      -16.8852657011  WT01      1819            0.0000000000
      5533      1824  TIP3      H2              3.0488263667        1.0211086532      -17.9226312857  WT01      1819            0.0000000000
      5534      1825  TIP3      OH2            -2.4949515235       19.5083058353        7.6182125945  WT01      1820            0.0000000000
      5535      1825  TIP3      H1             -2.1721296943       20.1253482622        8.2749290638  WT01      1820            0.0000000000
      5536      1825  TIP3      H2             -2.0916519409       19.7965230702        6.7993645724  WT01      1820            0.0000000000
      5537      1826  TIP3      OH2             9.7037748319        6.1147093312      -14.8456504887  WT01      1821            0.0000000000
      5538      1826  TIP3      H1              9.9874016543        5.5003248163      -14.1686576494  WT01      1821            0.0000000000
      5539      1826  TIP3      H2              8.9721297129        6.5877180843      -14.4491786104  WT01      1821            0.0000000000
      5540      1827  TIP3      OH2            11.8266028714        2.1269497546       -1.6146662072  WT01      1822            0.0000000000
      5541      1827  TIP3      H1             11.4751104271        2.9283807975       -1.2268606424  WT01      1822            0.0000000000
      5542      1827  TIP3      H2             11.3909446312        2.0604147885       -2.4643760442  WT01      1822            0.0000000000
      5543      1828  TIP3      OH2           -11.1773291190       -6.9094930915        7.0193227226  WT01      1823            0.0000000000
      5544      1828  TIP3      H1            -10.8241074802       -6.2586094168        6.4128437643  WT01      1823            0.0000000000
      5545      1828  TIP3      H2            -10.6574001473       -6.8024004141        7.8158381550  WT01      1823            0.0000000000
      5546      1829  TIP3      OH2            -1.4602944351        6.5905654947      -18.5623977382  WT01      1824            0.0000000000
      5547      1829  TIP3      H1             -1.6277326768        6.3521467707      -17.6506122600  WT01      1824            0.0000000000
      5548      1829  TIP3      H2             -0.9989353317        7.4276496726      -18.5107289094  WT01      1824            0.0000000000
      5549      1830  TIP3      OH2             0.2178098028       13.3252497373       -5.1378979480  WT01      1825            0.0000000000
      5550      1830  TIP3      H1              0.0787777325       14.0440500138       -4.5212715968  WT01      1825            0.0000000000
      5551      1830  TIP3      H2              0.1768221435       13.7378450268       -6.0006360020  WT01      1825            0.0000000000
      5552      1831  TIP3      OH2           -19.6192450240       10.7636204321       -3.6989704460  WT01      1826            0.0000000000
      5553      1831  TIP3      H1            -19.7207665546        9.8173543559       -3.5964731152  WT01      1826            0.0000000000
      5554      1831  TIP3      H2            -20.3470599572       11.0232772587       -4.2638558915  WT01      1826            0.0000000000
      5555      1832  TIP3      OH2            11.1949569581       -0.9631578671      -16.2907047151  WT01      1827            0.0000000000
      5556      1832  TIP3      H1             10.5795339899       -1.2155168505      -16.9790369930  WT01      1827            0.0000000000
      5557      1832  TIP3      H2             10.6404164086       -0.6517285255      -15.5753528051  WT01      1827            0.0000000000
      5558      1833  TIP3      OH2             6.7278967154       -6.3433311903        8.6359553973  WT01      1828            0.0000000000
      5559      1833  TIP3      H1              6.4719253712       -7.2626087696        8.5608606956  WT01      1828            0.0000000000
      5560      1833  TIP3      H2              7.5601776037       -6.2868463138        8.1665410891  WT01      1828            0.0000000000
      5561      1834  TIP3      OH2             9.1522105908        8.2621637325       -4.2784027636  WT01      1829            0.0000000000
      5562      1834  TIP3      H1              9.3279416436        8.4194000965       -5.2061026795  WT01      1829            0.0000000000
      5563      1834  TIP3      H2              8.3916681376        8.8092320100       -4.0821292612  WT01      1829            0.0000000000
      5564      1835  TIP3      OH2            13.9719416467       -9.6529808058       12.9221115605  WT01      1830            0.0000000000
      5565      1835  TIP3      H1             14.6632772402       -9.2957791522       12.3647123438  WT01      1830            0.0000000000
      5566      1835  TIP3      H2             13.9050111612      -10.5718349229       12.6623824082  WT01      1830            0.0000000000
      5567      1836  TIP3      OH2           -16.9305249967       -5.0402451935       -2.9314810047  WT01      1831            0.0000000000
      5568      1836  TIP3      H1            -17.6388259815       -5.5857805484       -3.2734352453  WT01      1831            0.0000000000
      5569      1836  TIP3      H2            -16.1858184678       -5.6362576876       -2.8513991479  WT01      1831            0.0000000000
      5570      1837  TIP3      OH2            19.4138814795       12.0976061534        1.2546829333  WT01      1832            0.0000000000
      5571      1837  TIP3      H1             18.8451127557       12.2847524825        0.5078829591  WT01      1832            0.0000000000
      5572      1837  TIP3      H2             20.2948223381       12.0607146537        0.8821053818  WT01      1832            0.0000000000
      5573      1838  TIP3      OH2            15.6402538621       -1.2373766762      -17.1140549681  WT01      1833            0.0000000000
      5574      1838  TIP3      H1             15.1764803260       -0.6439245007      -17.7047836991  WT01      1833            0.0000000000
      5575      1838  TIP3      H2             15.0403202270       -1.3611520875      -16.3785340016  WT01      1833            0.0000000000
      5576      1839  TIP3      OH2           -16.0440932596        2.6523755684      -14.9095550710  WT01      1834            0.0000000000
      5577      1839  TIP3      H1            -16.1456700006        3.5696509561      -15.1635626297  WT01      1834            0.0000000000
      5578      1839  TIP3      H2            -16.8992054624        2.4046176578      -14.5579431408  WT01      1834            0.0000000000
      5579      1840  TIP3      OH2            15.4606997693        4.3313053414       17.6662707550  WT01      1835            0.0000000000
      5580      1840  TIP3      H1             15.9536305814        5.0041848403       18.1358282122  WT01      1835            0.0000000000
      5581      1840  TIP3      H2             14.5613820080        4.6587975150       17.6518398349  WT01      1835            0.0000000000
      5582      1841  TIP3      OH2            -3.1316624802       15.7053492470        1.8856535314  WT01      1836            0.0000000000
      5583      1841  TIP3      H1             -3.6700211844       15.2540224078        2.5358118205  WT01      1836            0.0000000000
      5584      1841  TIP3      H2             -3.5533783057       15.5114376419        1.0485239937  WT01      1836            0.0000000000
      5585      1842  TIP3      OH2            19.0598561644      -13.8481098192       -5.1963187877  WT01      1837            0.0000000000
      5586      1842  TIP3      H1             19.8885656180      -14.0874342121       -4.7813533824  WT01      1837            0.0000000000
      5587      1842  TIP3      H2             19.3042696160      -13.2192717169       -5.8753302138  WT01      1837            0.0000000000
      5588      1843  TIP3      OH2            14.9344086829       -9.5835982332       15.3592244913  WT01      1838            0.0000000000
      5589      1843  TIP3      H1             14.7292697515       -9.9172119557       14.4858106638  WT01      1838            0.0000000000
      5590      1843  TIP3      H2             15.8865308364       -9.6557912820       15.4261825352  WT01      1838            0.0000000000
      5591      1844  TIP3      OH2            19.2155182934       -4.5178906846       11.0668681295  WT01      1839            0.0000000000
      5592      1844  TIP3      H1             18.3242075348       -4.4794124517       11.4137346286  WT01      1839            0.0000000000
      5593      1844  TIP3      H2             19.7467961608       -4.0612395138       11.7191298461  WT01      1839            0.0000000000
      5594      1845  TIP3      OH2             0.4395470458       16.5939827422       14.4384453181  WT01      1840            0.0000000000
      5595      1845  TIP3      H1              0.9431390089       17.3765614853       14.6624932072  WT01      1840            0.0000000000
      5596      1845  TIP3      H2             -0.0237707335       16.3677100909       15.2448999874  WT01      1840            0.0000000000
      5597      1846  TIP3      OH2            12.7255022280       14.3274873989      -12.1004121089  WT01      1841            0.0000000000
      5598      1846  TIP3      H1             12.2386054644       14.3205716832      -12.9244967681  WT01      1841            0.0000000000
      5599      1846  TIP3      H2             13.6290242577       14.1387556376      -12.3539078192  WT01      1841            0.0000000000
      5600      1847  TIP3      OH2             8.8439126432        2.9030701689       -0.6210940401  WT01      1842            0.0000000000
      5601      1847  TIP3      H1              8.3553712751        2.6587467050        0.1649499712  WT01      1842            0.0000000000
      5602      1847  TIP3      H2              8.6659999112        2.1976632531       -1.2431711687  WT01      1842            0.0000000000
      5603      1848  TIP3      OH2            13.3916018768        9.1700218871       -1.5641669382  WT01      1843            0.0000000000
      5604      1848  TIP3      H1             12.9541327553        9.7869037582       -2.1509457177  WT01      1843            0.0000000000
      5605      1848  TIP3      H2             13.1157552072        9.4362868729       -0.6871017278  WT01      1843            0.0000000000
      5606      1849  TIP3      OH2             7.0263868797       -5.4464414693       12.2864209395  WT01      1844            0.0000000000
      5607      1849  TIP3      H1              6.3172181112       -6.0241107459       12.0042690730  WT01      1844            0.0000000000
      5608      1849  TIP3      H2              7.0843141489       -4.7837324563       11.5981673477  WT01      1844            0.0000000000
      5609      1850  TIP3      OH2            19.6861977631        1.0692930603       14.2053245312  WT01      1845            0.0000000000
      5610      1850  TIP3      H1             20.6186859991        1.1134068585       14.4168699722  WT01      1845            0.0000000000
      5611      1850  TIP3      H2             19.4982724167        0.1327869464       14.1430977384  WT01      1845            0.0000000000
      5612      1851  TIP3      OH2             8.8138128503       -9.4954941742       15.2249995047  WT01      1846            0.0000000000
      5613      1851  TIP3      H1              8.8309041433       -9.0140582914       14.3978603450  WT01      1846            0.0000000000
      5614      1851  TIP3      H2              8.1427940051      -10.1662739372       15.0984292474  WT01      1846            0.0000000000
      5615      1852  TIP3      OH2             1.9182450496        8.0247998913        3.0546773237  WT01      1847            0.0000000000
      5616      1852  TIP3      H1              2.4923394404        7.4323770589        2.5692057702  WT01      1847            0.0000000000
      5617      1852  TIP3      H2              1.6914495700        7.5416437875        3.8492563322  WT01      1847            0.0000000000
      5618      1853  TIP3      OH2             9.1973710125        5.0467091575        1.5668455237  WT01      1848            0.0000000000
      5619      1853  TIP3      H1              9.0273378025        5.9346486017        1.2523871608  WT01      1848            0.0000000000
      5620      1853  TIP3      H2              9.6938228093        4.6330003072        0.8607205973  WT01      1848            0.0000000000
      5621      1854  TIP3      OH2           -17.1397667840       -5.7561958596       13.6754956736  WT01      1849            0.0000000000
      5622      1854  TIP3      H1            -16.4979069773       -6.3011179226       14.1308062762  WT01      1849            0.0000000000
      5623      1854  TIP3      H2            -17.6384472996       -6.3713344195       13.1377651588  WT01      1849            0.0000000000
      5624      1855  TIP3      OH2            -8.4451233820       11.2083496718       -3.4888936368  WT01      1850            0.0000000000
      5625      1855  TIP3      H1             -7.5961607741       11.0092161835       -3.8836595868  WT01      1850            0.0000000000
      5626      1855  TIP3      H2             -8.6014454355       12.1272402520       -3.7066901666  WT01      1850            0.0000000000
      5627      1856  TIP3      OH2            11.7005069101        7.5847780668      -15.9709982174  WT01      1851            0.0000000000
      5628      1856  TIP3      H1             10.9382268483        7.1870257088      -15.5503392342  WT01      1851            0.0000000000
      5629      1856  TIP3      H2             11.3832293859        7.8610595645      -16.8307861666  WT01      1851            0.0000000000
      5630      1857  TIP3      OH2            18.5645770654       -4.0593864293       15.1206713744  WT01      1852            0.0000000000
      5631      1857  TIP3      H1             18.6479412579       -3.2827440851       15.6739424576  WT01      1852            0.0000000000
      5632      1857  TIP3      H2             17.6207310604       -4.1783350409       15.0146630830  WT01      1852            0.0000000000
      5633      1858  TIP3      OH2             9.3416163766      -18.7030836878       15.4900433024  WT01      1853            0.0000000000
      5634      1858  TIP3      H1              9.9585396292      -18.8457486759       14.7722103047  WT01      1853            0.0000000000
      5635      1858  TIP3      H2              8.7202418748      -18.0601922540       15.1482595346  WT01      1853            0.0000000000
      5636      1859  TIP3      OH2            -7.1114421317       -9.8057172447       15.0803928383  WT01      1854            0.0000000000
      5637      1859  TIP3      H1             -6.3141157020       -9.6816740012       15.5952866616  WT01      1854            0.0000000000
      5638      1859  TIP3      H2             -7.4546967148       -8.9213462060       14.9527371765  WT01      1854            0.0000000000
      5639      1860  TIP3      OH2           -13.1248784123        6.4622278739        5.3158403326  WT01      1855            0.0000000000
      5640      1860  TIP3      H1            -12.4174346611        5.9771395881        5.7406279323  WT01      1855            0.0000000000
      5641      1860  TIP3      H2            -12.6934730330        7.2212059049        4.9233182845  WT01      1855            0.0000000000
      5642      1861  TIP3      OH2            19.6696034217        8.6921628907      -13.1944865558  WT01      1856            0.0000000000
      5643      1861  TIP3      H1             19.5222252084        8.6555753029      -14.1395647651  WT01      1856            0.0000000000
      5644      1861  TIP3      H2             20.5666932585        9.0134563830      -13.1037554831  WT01      1856            0.0000000000
      5645      1862  TIP3      OH2            11.9384299023       -6.0365149884       -0.6526442855  WT01      1857            0.0000000000
      5646      1862  TIP3      H1             11.0229009802       -6.2406513487       -0.4619430788  WT01      1857            0.0000000000
      5647      1862  TIP3      H2             11.8975557101       -5.3302930531       -1.2974789074  WT01      1857            0.0000000000
      5648      1863  TIP3      OH2            12.7588627039        5.5201049154       -7.8758165172  WT01      1858            0.0000000000
      5649      1863  TIP3      H1             12.1140662135        5.2276463764       -8.5199727870  WT01      1858            0.0000000000
      5650      1863  TIP3      H2             12.2490885291        5.6802875756       -7.0816480105  WT01      1858            0.0000000000
      5651      1864  TIP3      OH2            -2.3897373227      -17.4747181019       -1.9761821947  WT01      1859            0.0000000000
      5652      1864  TIP3      H1             -1.6984095709      -17.4905535003       -2.6380333794  WT01      1859            0.0000000000
      5653      1864  TIP3      H2             -2.5892048859      -16.5458093161       -1.8596791047  WT01      1859            0.0000000000
      5654      1865  TIP3      OH2            -7.3562042860        5.2936733938       -1.2346415968  WT01      1860            0.0000000000
      5655      1865  TIP3      H1             -7.0815345263        6.1912628765       -1.0472344071  WT01      1860            0.0000000000
      5656      1865  TIP3      H2             -6.5986761846        4.8954521126       -1.6633638821  WT01      1860            0.0000000000
      5657      1866  TIP3      OH2            16.0150520848       11.0114928472       -9.6994631326  WT01      1861            0.0000000000
      5658      1866  TIP3      H1             16.0845979805       10.0598845946       -9.7758628246  WT01      1861            0.0000000000
      5659      1866  TIP3      H2             16.1719659933       11.1899135376       -8.7722221210  WT01      1861            0.0000000000
      5660      1867  TIP3      OH2           -19.2435477937        5.0381364215        8.1941820857  WT01      1862            0.0000000000
      5661      1867  TIP3      H1            -20.0074850964        4.4942706319        8.3861237733  WT01      1862            0.0000000000
      5662      1867  TIP3      H2            -19.4749721169        5.5014873753        7.3892097338  WT01      1862            0.0000000000
      5663      1868  TIP3      OH2             6.1771659458       18.2195002743       -8.8275168386  WT01      1863            0.0000000000
      5664      1868  TIP3      H1              6.8370923897       18.7915237848       -8.4357031033  WT01      1863            0.0000000000
      5665      1868  TIP3      H2              5.4505800485       18.2293843741       -8.2044542017  WT01      1863            0.0000000000
      5666      1869  TIP3      OH2           -13.0627352735       -0.9808942210        1.9086035818  WT01      1864            0.0000000000
      5667      1869  TIP3      H1            -13.3075427420       -0.6416827980        1.0476525234  WT01      1864            0.0000000000
      5668      1869  TIP3      H2            -13.8582238773       -1.4004704132        2.2363008674  WT01      1864            0.0000000000
      5669      1870  TIP3      OH2           -10.7540456384       -4.0365344681      -13.1807120045  WT01      1865            0.0000000000
      5670      1870  TIP3      H1             -9.8176699445       -3.8453203453      -13.2342799998  WT01      1865            0.0000000000
      5671      1870  TIP3      H2            -10.8021898965       -4.9918148874      -13.1439252935  WT01      1865            0.0000000000
      5672      1871  TIP3      OH2             6.0691594398      -14.4766584065        8.4133695824  WT01      1866            0.0000000000
      5673      1871  TIP3      H1              6.7025152985      -14.8815709848        9.0059385415  WT01      1866            0.0000000000
      5674      1871  TIP3      H2              6.5101687198      -13.6903901518        8.0916167925  WT01      1866            0.0000000000
      5675      1872  TIP3      OH2             7.0002929289        9.8801227723       -3.7731407158  WT01      1867            0.0000000000
      5676      1872  TIP3      H1              6.7947725316       10.0232089814       -4.6970019143  WT01      1867            0.0000000000
      5677      1872  TIP3      H2              6.4715033795       10.5273972557       -3.3066118672  WT01      1867            0.0000000000
      5678      1873  TIP3      OH2            16.7834612327        6.2098238373        9.5101215458  WT01      1868            0.0000000000
      5679      1873  TIP3      H1             17.6972067713        6.0987472632        9.7727294218  WT01      1868            0.0000000000
      5680      1873  TIP3      H2             16.4729285059        6.9514336956       10.0295597564  WT01      1868            0.0000000000
      5681      1874  TIP3      OH2            -6.5219815674        7.8020249649       -0.6965372154  WT01      1869            0.0000000000
      5682      1874  TIP3      H1             -5.8368120569        7.6237147798       -1.3407266525  WT01      1869            0.0000000000
      5683      1874  TIP3      H2             -6.5444756123        8.7565078059       -0.6280657960  WT01      1869            0.0000000000
      5684      1875  TIP3      OH2            15.5520923053       10.6486389855      -19.2696229733  WT01      1870            0.0000000000
      5685      1875  TIP3      H1             15.6025102897       10.9458349063      -18.3611272812  WT01      1870            0.0000000000
      5686      1875  TIP3      H2             15.4974738137       11.4546099593      -19.7831007437  WT01      1870            0.0000000000
      5687      1876  TIP3      OH2           -16.7627005431        2.6828377649       15.5927898230  WT01      1871            0.0000000000
      5688      1876  TIP3      H1            -16.6946795846        3.2112161562       14.7975406571  WT01      1871            0.0000000000
      5689      1876  TIP3      H2            -17.1179923963        1.8454341505       15.2948725583  WT01      1871            0.0000000000
      5690      1877  TIP3      OH2            12.0487926930        4.0741525451        7.4970642540  WT01      1872            0.0000000000
      5691      1877  TIP3      H1             12.3443793550        4.7540142588        8.1025792304  WT01      1872            0.0000000000
      5692      1877  TIP3      H2             11.9258419680        3.3001926176        8.0467013715  WT01      1872            0.0000000000
      5693      1878  TIP3      OH2             4.1048175188        8.2342041385       -3.1513064749  WT01      1873            0.0000000000
      5694      1878  TIP3      H1              4.9803532580        8.5194415053       -2.8899472869  WT01      1873            0.0000000000
      5695      1878  TIP3      H2              4.0708837097        7.3092916038       -2.9071403207  WT01      1873            0.0000000000
      5696      1879  TIP3      OH2            18.5962192822       -2.1749083503        1.2692632489  WT01      1874            0.0000000000
      5697      1879  TIP3      H1             19.1341317595       -2.5267414452        0.5599710304  WT01      1874            0.0000000000
      5698      1879  TIP3      H2             18.0479299449       -2.9105135489        1.5422020797  WT01      1874            0.0000000000
      5699      1880  TIP3      OH2            18.0639108542       -9.4908056798        4.2857122305  WT01      1875            0.0000000000
      5700      1880  TIP3      H1             18.2810154928       -8.6947559358        4.7708948684  WT01      1875            0.0000000000
      5701      1880  TIP3      H2             17.7444235760      -10.0986669023        4.9525438616  WT01      1875            0.0000000000
      5702      1881  TIP3      OH2            19.3652010332       -0.4951815537       -6.0220369853  WT01      1876            0.0000000000
      5703      1881  TIP3      H1             19.8911589130       -0.3414470737       -6.8068718911  WT01      1876            0.0000000000
      5704      1881  TIP3      H2             19.6725065516        0.1596399379       -5.3951367193  WT01      1876            0.0000000000
      5705      1882  TIP3      OH2            15.1384887003       13.5047353539       -1.9476392122  WT01      1877            0.0000000000
      5706      1882  TIP3      H1             14.4542788815       12.9974339140       -2.3843702323  WT01      1877            0.0000000000
      5707      1882  TIP3      H2             15.1076675630       14.3630030428       -2.3703192835  WT01      1877            0.0000000000
      5708      1883  TIP3      OH2            17.9968837253        3.7646963319        7.6459630045  WT01      1878            0.0000000000
      5709      1883  TIP3      H1             17.1596074195        3.7630435376        7.1820691943  WT01      1878            0.0000000000
      5710      1883  TIP3      H2             18.0656321740        2.8863717766        8.0201974729  WT01      1878            0.0000000000
      5711      1884  TIP3      OH2           -10.4632705794        2.4132411136       -1.4199920072  WT01      1879            0.0000000000
      5712      1884  TIP3      H1             -9.5546480648        2.4284563187       -1.1193170422  WT01      1879            0.0000000000
      5713      1884  TIP3      H2            -10.5076394588        1.6623101880       -2.0119091962  WT01      1879            0.0000000000
      5714      1885  TIP3      OH2           -11.7322093132       13.0281682642       -1.9377109552  WT01      1880            0.0000000000
      5715      1885  TIP3      H1            -12.3817861678       13.2942707831       -1.2869643299  WT01      1880            0.0000000000
      5716      1885  TIP3      H2            -11.4522414305       12.1575086322       -1.6552191837  WT01      1880            0.0000000000
      5717      1886  TIP3      OH2             6.7545098828        8.8644227483        2.7172980539  WT01      1881            0.0000000000
      5718      1886  TIP3      H1              6.2974213413        8.5668045859        1.9307071146  WT01      1881            0.0000000000
      5719      1886  TIP3      H2              7.0008447179        8.0584582334        3.1711396129  WT01      1881            0.0000000000
      5720      1887  TIP3      OH2           -17.7689338843      -19.8863201533       -8.6389190691  WT01      1882            0.0000000000
      5721      1887  TIP3      H1            -17.0018063677      -19.3499609525       -8.8390839810  WT01      1882            0.0000000000
      5722      1887  TIP3      H2            -18.1336033635      -19.4965190979       -7.8443732119  WT01      1882            0.0000000000
      5723      1888  TIP3      OH2           -14.0573246219        9.0443758215        9.2676868935  WT01      1883            0.0000000000
      5724      1888  TIP3      H1            -13.6582714100        9.8887951675        9.0580579043  WT01      1883            0.0000000000
      5725      1888  TIP3      H2            -14.2982008341        9.1154713570       10.1913512732  WT01      1883            0.0000000000
      5726      1889  TIP3      OH2            -6.4059727783      -11.5969288688       18.1432508783  WT01      1884            0.0000000000
      5727      1889  TIP3      H1             -5.8572807668      -11.6416370164       17.3601991117  WT01      1884            0.0000000000
      5728      1889  TIP3      H2             -7.0680246578      -10.9377038195       17.9350647731  WT01      1884            0.0000000000
      5729      1890  TIP3      OH2           -13.4653548263        0.2418886886       -8.8925593107  WT01      1885            0.0000000000
      5730      1890  TIP3      H1            -13.9114317662       -0.5826833187       -8.6993542912  WT01      1885            0.0000000000
      5731      1890  TIP3      H2            -14.1723717296        0.8581216499       -9.0839119876  WT01      1885            0.0000000000
      5732      1891  TIP3      OH2           -18.0494021245      -17.7597555236       10.7189615194  WT01      1886            0.0000000000
      5733      1891  TIP3      H1            -17.7198197810      -18.6172784963       10.4501462647  WT01      1886            0.0000000000
      5734      1891  TIP3      H2            -18.9922582060      -17.8044325444       10.5600332825  WT01      1886            0.0000000000
      5735      1892  TIP3      OH2           -14.6850019215        0.4699651939        0.0189447402  WT01      1887            0.0000000000
      5736      1892  TIP3      H1            -14.6743030809        1.2180188652       -0.5781591459  WT01      1887            0.0000000000
      5737      1892  TIP3      H2            -15.6060037809        0.3674070159        0.2586720984  WT01      1887            0.0000000000
      5738      1893  TIP3      OH2           -19.6730908270        0.1704302063        1.9257160250  WT01      1888            0.0000000000
      5739      1893  TIP3      H1            -20.2981498353        0.8799316290        2.0745138016  WT01      1888            0.0000000000
      5740      1893  TIP3      H2            -20.1909159899       -0.6291549627        2.0192706577  WT01      1888            0.0000000000
      5741      1894  TIP3      OH2            12.6571227880       -0.6931079908       14.6732145852  WT01      1889            0.0000000000
      5742      1894  TIP3      H1             12.8664937442       -0.0937106274       13.9568917429  WT01      1889            0.0000000000
      5743      1894  TIP3      H2             11.7680688356       -0.9927133352       14.4833422110  WT01      1889            0.0000000000
      5744      1895  TIP3      OH2             4.5390600893      -14.6708681813       -5.1023859026  WT01      1890            0.0000000000
      5745      1895  TIP3      H1              4.3155640492      -15.5129758537       -4.7059820691  WT01      1890            0.0000000000
      5746      1895  TIP3      H2              5.4551697789      -14.5289872839       -4.8639647236  WT01      1890            0.0000000000
      5747      1896  TIP3      OH2            15.9268602238       -8.9621077800       10.9235748352  WT01      1891            0.0000000000
      5748      1896  TIP3      H1             15.7843026300       -9.0864996337        9.9852594243  WT01      1891            0.0000000000
      5749      1896  TIP3      H2             16.6415591290       -8.3275035587       10.9756782736  WT01      1891            0.0000000000
      5750      1897  TIP3      OH2            10.0970454141      -17.0394966667       17.7842808525  WT01      1892            0.0000000000
      5751      1897  TIP3      H1             10.6865118616      -16.5768315101       17.1887121569  WT01      1892            0.0000000000
      5752      1897  TIP3      H2              9.7118778681      -17.7336750873       17.2494966970  WT01      1892            0.0000000000
      5753      1898  TIP3      OH2           -16.6347316017        0.6469866833        3.9921593742  WT01      1893            0.0000000000
      5754      1898  TIP3      H1            -17.3335269542        0.0611666539        4.2832465767  WT01      1893            0.0000000000
      5755      1898  TIP3      H2            -16.1444570435        0.8501182385        4.7887773755  WT01      1893            0.0000000000
      5756      1899  TIP3      OH2           -11.6777292616        6.6850844062        0.0603517365  WT01      1894            0.0000000000
      5757      1899  TIP3      H1            -11.7489240589        6.5524780866       -0.8849411683  WT01      1894            0.0000000000
      5758      1899  TIP3      H2            -10.8103300239        7.0705334663        0.1839615891  WT01      1894            0.0000000000
      5759      1900  TIP3      OH2             3.3047058107        8.6628540786      -14.5672537804  WT01      1895            0.0000000000
      5760      1900  TIP3      H1              2.4994894064        9.1578556458      -14.4161518219  WT01      1895            0.0000000000
      5761      1900  TIP3      H2              3.6901746202        8.5602159591      -13.6971325105  WT01      1895            0.0000000000
      5762      1901  TIP3      OH2            -9.0236077582       11.9478710870      -12.7665420055  WT01      1896            0.0000000000
      5763      1901  TIP3      H1             -9.8752200536       11.5458380450      -12.9378830180  WT01      1896            0.0000000000
      5764      1901  TIP3      H2             -8.9130920177       12.5856743251      -13.4716839144  WT01      1896            0.0000000000
      5765      1902  TIP3      OH2           -15.1026234424        1.5884964456       11.7867366904  WT01      1897            0.0000000000
      5766      1902  TIP3      H1            -14.3385890191        1.7344808894       12.3445643997  WT01      1897            0.0000000000
      5767      1902  TIP3      H2            -15.1398020594        2.3615799001       11.2235390928  WT01      1897            0.0000000000
      5768      1903  TIP3      OH2           -18.8796617777       -4.0131585465       17.2303078372  WT01      1898            0.0000000000
      5769      1903  TIP3      H1            -18.1113661843       -4.1005855582       16.6661179668  WT01      1898            0.0000000000
      5770      1903  TIP3      H2            -19.0984871205       -4.9113072915       17.4786545950  WT01      1898            0.0000000000
      5771      1904  TIP3      OH2           -13.8259670032      -15.1139627276        4.8680902848  WT01      1899            0.0000000000
      5772      1904  TIP3      H1            -14.0863320706      -14.1938714444        4.8248020264  WT01      1899            0.0000000000
      5773      1904  TIP3      H2            -13.4550513991      -15.2174380503        5.7444157285  WT01      1899            0.0000000000
      5774      1905  TIP3      OH2           -12.9092312469        0.4540951966      -17.1262456991  WT01      1900            0.0000000000
      5775      1905  TIP3      H1            -13.8146906344        0.4119084776      -16.8186820647  WT01      1900            0.0000000000
      5776      1905  TIP3      H2            -12.9706515650        0.3211856580      -18.0721814316  WT01      1900            0.0000000000
      5777      1906  TIP3      OH2             7.5100236441       -1.1527584450      -19.2881575520  WT01      1901            0.0000000000
      5778      1906  TIP3      H1              8.2888556387       -1.5164610241      -18.8670008482  WT01      1901            0.0000000000
      5779      1906  TIP3      H2              7.0811883282       -0.6432745320      -18.6005833922  WT01      1901            0.0000000000
      5780      1907  TIP3      OH2           -14.3687591099       -7.7047393185       -8.1703887146  WT01      1902            0.0000000000
      5781      1907  TIP3      H1            -14.7898910439       -7.8364335626       -9.0198216615  WT01      1902            0.0000000000
      5782      1907  TIP3      H2            -14.3457354705       -8.5766937969       -7.7761843124  WT01      1902            0.0000000000
      5783      1908  TIP3      OH2             8.8371680115        2.2941801068       17.2711093791  WT01      1903            0.0000000000
      5784      1908  TIP3      H1              9.4309480603        2.1365892475       18.0051544634  WT01      1903            0.0000000000
      5785      1908  TIP3      H2              9.3300792907        2.0150489772       16.4995161609  WT01      1903            0.0000000000
      5786      1909  TIP3      OH2             9.7002054885      -16.8360778020        7.1047730760  WT01      1904            0.0000000000
      5787      1909  TIP3      H1              9.6429655659      -17.6491704087        7.6066055333  WT01      1904            0.0000000000
      5788      1909  TIP3      H2              9.3076840696      -17.0485424097        6.2580041954  WT01      1904            0.0000000000
      5789      1910  TIP3      OH2             5.3208299474        6.6001564114      -17.8446610889  WT01      1905            0.0000000000
      5790      1910  TIP3      H1              4.4126893813        6.7310598594      -18.1173822113  WT01      1905            0.0000000000
      5791      1910  TIP3      H2              5.5665793682        7.4245901924      -17.4249612272  WT01      1905            0.0000000000
      5792      1911  TIP3      OH2            18.1820896803        1.7845064575       11.4052753378  WT01      1906            0.0000000000
      5793      1911  TIP3      H1             18.8540216131        2.3208536974       11.8260733025  WT01      1906            0.0000000000
      5794      1911  TIP3      H2             17.7259515175        2.3878853024       10.8186717604  WT01      1906            0.0000000000
      5795      1912  TIP3      OH2            -8.5977466823       -3.9564992923       15.2899203106  WT01      1907            0.0000000000
      5796      1912  TIP3      H1             -8.2012583363       -4.2388690459       14.4657260830  WT01      1907            0.0000000000
      5797      1912  TIP3      H2             -8.6355214425       -3.0023491426       15.2235699502  WT01      1907            0.0000000000
      5798      1913  TIP3      OH2           -19.1166634119        4.9849665431       14.4327485520  WT01      1908            0.0000000000
      5799      1913  TIP3      H1            -19.4316324426        4.9487630475       15.3359183188  WT01      1908            0.0000000000
      5800      1913  TIP3      H2            -18.1939632604        4.7368720424       14.4902408145  WT01      1908            0.0000000000
      5801      1914  TIP3      OH2            16.6035743333       -0.5136856007       11.4703068526  WT01      1909            0.0000000000
      5802      1914  TIP3      H1             16.5796539771       -0.9030118819       10.5961874818  WT01      1909            0.0000000000
      5803      1914  TIP3      H2             17.2224522764        0.2124067200       11.3927707685  WT01      1909            0.0000000000
      5804      1915  TIP3      OH2            -6.2599049501      -10.5072537913      -13.8643140357  WT01      1910            0.0000000000
      5805      1915  TIP3      H1             -6.5270046863      -11.1055597766      -14.5621102022  WT01      1910            0.0000000000
      5806      1915  TIP3      H2             -5.9809077912      -11.0805412920      -13.1503575679  WT01      1910            0.0000000000
      5807      1916  TIP3      OH2             7.7447531427      -18.3185035628      -17.8567080003  WT01      1911            0.0000000000
      5808      1916  TIP3      H1              8.4492374647      -17.9023809160      -17.3599428709  WT01      1911            0.0000000000
      5809      1916  TIP3      H2              7.4838733834      -19.0679195337      -17.3214050349  WT01      1911            0.0000000000
      5810      1917  TIP3      OH2           -11.6044115178       14.0616908031      -12.1718947591  WT01      1912            0.0000000000
      5811      1917  TIP3      H1            -10.8530215123       14.5623957158      -12.4896044710  WT01      1912            0.0000000000
      5812      1917  TIP3      H2            -12.3347264429       14.6797212450      -12.2020658426  WT01      1912            0.0000000000
      5813      1918  TIP3      OH2             5.8133296457       -4.8763183142       14.9713553127  WT01      1913            0.0000000000
      5814      1918  TIP3      H1              5.7277301791       -4.9585529707       14.0215437505  WT01      1913            0.0000000000
      5815      1918  TIP3      H2              6.6900561892       -5.2092546456       15.1630211109  WT01      1913            0.0000000000
      5816      1919  TIP3      OH2            18.3002038407        9.9733851302       19.7232778427  WT01      1914            0.0000000000
      5817      1919  TIP3      H1             17.4309233836       10.0235126509       20.1208586893  WT01      1914            0.0000000000
      5818      1919  TIP3      H2             18.9036845070        9.9634975620       20.4662079420  WT01      1914            0.0000000000
      5819      1920  TIP3      OH2           -17.3575983287      -13.5151479783       -0.4908654656  WT01      1915            0.0000000000
      5820      1920  TIP3      H1            -17.7132333618      -13.0364480531       -1.2395990069  WT01      1915            0.0000000000
      5821      1920  TIP3      H2            -17.0670926806      -14.3507856159       -0.8563076882  WT01      1915            0.0000000000
      5822      1921  TIP3      OH2            -0.8173124149        2.6155531193       14.9095428928  WT01      1916            0.0000000000
      5823      1921  TIP3      H1             -0.0725422825        2.0445323341       15.0979162556  WT01      1916            0.0000000000
      5824      1921  TIP3      H2             -1.1545218857        2.8621364125       15.7707735607  WT01      1916            0.0000000000
      5825      1922  TIP3      OH2            19.1820160349      -15.0985726688      -17.8213816509  WT01      1917            0.0000000000
      5826      1922  TIP3      H1             19.9603643402      -15.2287949014      -18.3630899642  WT01      1917            0.0000000000
      5827      1922  TIP3      H2             19.0863953612      -15.9189142066      -17.3375136326  WT01      1917            0.0000000000
      5828      1923  TIP3      OH2           -17.2596782929        1.1657957352        1.0370354420  WT01      1918            0.0000000000
      5829      1923  TIP3      H1            -17.7731719028        0.3859739889        1.2478295779  WT01      1918            0.0000000000
      5830      1923  TIP3      H2            -17.1621948676        1.6220973071        1.8728091365  WT01      1918            0.0000000000
      5831      1924  TIP3      OH2           -14.7812256248       -5.1431045432       -8.9553590859  WT01      1919            0.0000000000
      5832      1924  TIP3      H1            -15.4406083893       -4.9313433550       -8.2945993867  WT01      1919            0.0000000000
      5833      1924  TIP3      H2            -14.4501599346       -6.0032579051       -8.6969727204  WT01      1919            0.0000000000
      5834      1925  TIP3      OH2             2.6723580191      -12.5618344213      -14.5582180619  WT01      1920            0.0000000000
      5835      1925  TIP3      H1              2.5346374055      -12.1609237499      -15.4164345131  WT01      1920            0.0000000000
      5836      1925  TIP3      H2              3.4230474696      -12.0939545985      -14.1924508798  WT01      1920            0.0000000000
      5837      1926  TIP3      OH2            -3.6710832336       -8.2959473233      -17.9986896870  WT01      1921            0.0000000000
      5838      1926  TIP3      H1             -3.0160411886       -8.8296342641      -17.5488786383  WT01      1921            0.0000000000
      5839      1926  TIP3      H2             -4.3501205909       -8.1448028148      -17.3411979258  WT01      1921            0.0000000000
      5840      1927  TIP3      OH2             1.4556209580      -17.9055710309       18.7073798136  WT01      1922            0.0000000000
      5841      1927  TIP3      H1              0.7190909004      -18.5001362657       18.5650862197  WT01      1922            0.0000000000
      5842      1927  TIP3      H2              1.8883112031      -17.8512910396       17.8552855433  WT01      1922            0.0000000000
      5843      1928  TIP3      OH2             9.8351459483        4.0947810442      -12.7305257708  WT01      1923            0.0000000000
      5844      1928  TIP3      H1              9.9646787535        3.1465910988      -12.7108054520  WT01      1923            0.0000000000
      5845      1928  TIP3      H2              9.8825620931        4.3626123140      -11.8127840146  WT01      1923            0.0000000000
      5846      1929  TIP3      OH2            18.5707529910        8.6942728677      -16.1600891876  WT01      1924            0.0000000000
      5847      1929  TIP3      H1             17.6974736784        8.4467185296      -16.4639508386  WT01      1924            0.0000000000
      5848      1929  TIP3      H2             18.6564787916        9.6164785632      -16.4017905596  WT01      1924            0.0000000000
      5849      1930  TIP3      OH2            -6.1824789978       16.1980491746      -15.1097444032  WT01      1925            0.0000000000
      5850      1930  TIP3      H1             -5.9355309572       17.0490866750      -15.4716610362  WT01      1925            0.0000000000
      5851      1930  TIP3      H2             -5.7059977679       15.5626494760      -15.6440333434  WT01      1925            0.0000000000
      5852      1931  TIP3      OH2             1.6177193284       -5.7484392043      -14.0500835791  WT01      1926            0.0000000000
      5853      1931  TIP3      H1              1.0268169929       -5.6937952998      -13.2990307949  WT01      1926            0.0000000000
      5854      1931  TIP3      H2              1.1073060441       -6.1959377000      -14.7249577798  WT01      1926            0.0000000000
      5855      1932  TIP3      OH2            17.2665281704        3.2416895981       -2.5029449856  WT01      1927            0.0000000000
      5856      1932  TIP3      H1             17.4009201761        3.3495999813       -1.5613899160  WT01      1927            0.0000000000
      5857      1932  TIP3      H2             16.4000728346        3.6143992119       -2.6659618740  WT01      1927            0.0000000000
      5858      1933  TIP3      OH2           -14.3923850329        7.6510923461       14.4655831580  WT01      1928            0.0000000000
      5859      1933  TIP3      H1            -14.4836544001        8.5579219847       14.7580925088  WT01      1928            0.0000000000
      5860      1933  TIP3      H2            -13.6723878851        7.6735659828       13.8352413033  WT01      1928            0.0000000000
      5861      1934  TIP3      OH2            -9.4321726182        1.0275303369      -11.9760937467  WT01      1929            0.0000000000
      5862      1934  TIP3      H1             -9.7844988054        0.4975243401      -11.2611170252  WT01      1929            0.0000000000
      5863      1934  TIP3      H2            -10.1750888394        1.5521274658      -12.2745986069  WT01      1929            0.0000000000
      5864      1935  TIP3      OH2            11.0912517940       -5.3410837455       15.0148192657  WT01      1930            0.0000000000
      5865      1935  TIP3      H1             11.5567842906       -5.1954172301       15.8384044598  WT01      1930            0.0000000000
      5866      1935  TIP3      H2             11.1909346026       -6.2778534204       14.8452382383  WT01      1930            0.0000000000
      5867      1936  TIP3      OH2            -4.8845294530        4.2750219201       -1.9104793228  WT01      1931            0.0000000000
      5868      1936  TIP3      H1             -4.2528048174        3.9486247100       -1.2696824306  WT01      1931            0.0000000000
      5869      1936  TIP3      H2             -4.3816729186        4.8787404222       -2.4571886488  WT01      1931            0.0000000000
      5870      1937  TIP3      OH2            -1.5339260880       13.5672507721       19.1372426058  WT01      1932            0.0000000000
      5871      1937  TIP3      H1             -0.8952957595       13.6619075517       19.8439414162  WT01      1932            0.0000000000
      5872      1937  TIP3      H2             -2.3534462623       13.3504985239       19.5818063895  WT01      1932            0.0000000000
      5873      1938  TIP3      OH2            13.1247860794       -8.7557780554        4.3543021359  WT01      1933            0.0000000000
      5874      1938  TIP3      H1             13.4367210824       -8.0000435090        3.8565133651  WT01      1933            0.0000000000
      5875      1938  TIP3      H2             13.1353007188       -9.4778874738        3.7260671152  WT01      1933            0.0000000000
      5876      1939  TIP3      OH2             6.5962620746       -7.6078599615       16.6042066768  WT01      1934            0.0000000000
      5877      1939  TIP3      H1              6.9451140568       -7.3868040804       17.4677276105  WT01      1934            0.0000000000
      5878      1939  TIP3      H2              7.3197181101       -8.0488372164       16.1588054685  WT01      1934            0.0000000000
      5879      1940  TIP3      OH2            17.4627371307       -2.7675415478      -15.4469588379  WT01      1935            0.0000000000
      5880      1940  TIP3      H1             17.2807042973       -2.1186697520      -16.1267097122  WT01      1935            0.0000000000
      5881      1940  TIP3      H2             18.2700167998       -2.4618129995      -15.0333631396  WT01      1935            0.0000000000
      5882      1941  TIP3      OH2            12.6430469801       -6.5088200855       -6.9323411739  WT01      1936            0.0000000000
      5883      1941  TIP3      H1             12.9206563232       -6.7766371227       -7.8083770740  WT01      1936            0.0000000000
      5884      1941  TIP3      H2             12.9559880961       -7.2072351589       -6.3574359171  WT01      1936            0.0000000000
      5885      1942  TIP3      OH2            16.4036986334        3.7545229697       10.4826462801  WT01      1937            0.0000000000
      5886      1942  TIP3      H1             16.7225108826        4.3881830267        9.8399445662  WT01      1937            0.0000000000
      5887      1942  TIP3      H2             16.1661056383        4.2837714837       11.2440117575  WT01      1937            0.0000000000
      5888      1943  TIP3      OH2            19.2639331543        3.7150820409      -11.9182386611  WT01      1938            0.0000000000
      5889      1943  TIP3      H1             18.9323148147        4.5738679527      -11.6560405576  WT01      1938            0.0000000000
      5890      1943  TIP3      H2             19.1947656519        3.7123652816      -12.8729324795  WT01      1938            0.0000000000
      5891      1944  TIP3      OH2             7.0582538912      -19.2696955441       13.4175398084  WT01      1939            0.0000000000
      5892      1944  TIP3      H1              7.9155566427      -19.6912407858       13.4772341335  WT01      1939            0.0000000000
      5893      1944  TIP3      H2              6.4715794288      -19.9612563300       13.1112906196  WT01      1939            0.0000000000
      5894      1945  TIP3      OH2             8.6994686629        1.7120220732        5.1405074019  WT01      1940            0.0000000000
      5895      1945  TIP3      H1              8.3986087320        1.3146242889        5.9576916614  WT01      1940            0.0000000000
      5896      1945  TIP3      H2              9.5097202474        2.1633571846        5.3771945333  WT01      1940            0.0000000000
      5897      1946  TIP3      OH2            18.6963753790      -13.3699981533        8.1891426545  WT01      1941            0.0000000000
      5898      1946  TIP3      H1             19.4500863130      -13.9599039614        8.1763842610  WT01      1941            0.0000000000
      5899      1946  TIP3      H2             18.1282089204      -13.7213506812        8.8746862983  WT01      1941            0.0000000000
      5900      1947  TIP3      OH2            -8.7337790456        3.7466132785      -15.9552687993  WT01      1942            0.0000000000
      5901      1947  TIP3      H1             -8.8845067505        3.5703904032      -16.8839552201  WT01      1942            0.0000000000
      5902      1947  TIP3      H2             -9.1099792841        2.9912163818      -15.5035158577  WT01      1942            0.0000000000
      5903      1948  TIP3      OH2             6.8576665637       -2.5878648194      -16.0655084670  WT01      1943            0.0000000000
      5904      1948  TIP3      H1              7.1052897998       -3.3980722457      -16.5110176929  WT01      1943            0.0000000000
      5905      1948  TIP3      H2              6.4052580680       -2.0745410268      -16.7348791027  WT01      1943            0.0000000000
      5906      1949  TIP3      OH2            17.5493139958       -5.7122096067      -11.3949216416  WT01      1944            0.0000000000
      5907      1949  TIP3      H1             16.9866556029       -6.4557050592      -11.6113976357  WT01      1944            0.0000000000
      5908      1949  TIP3      H2             18.2634070672       -5.7585513900      -12.0306537672  WT01      1944            0.0000000000
      5909      1950  TIP3      OH2             0.9142972930       -9.5108613349       10.5020502821  WT01      1945            0.0000000000
      5910      1950  TIP3      H1              0.2007263537       -9.9881376166       10.0786643156  WT01      1945            0.0000000000
      5911      1950  TIP3      H2              0.5408272954       -9.2041320798       11.3282882236  WT01      1945            0.0000000000
      5912      1951  TIP3      OH2            11.2312393881        9.4496552183       10.3799438445  WT01      1946            0.0000000000
      5913      1951  TIP3      H1             11.7693865185       10.2378212034       10.4535906846  WT01      1946            0.0000000000
      5914      1951  TIP3      H2             10.9815719303        9.4149538389        9.4565296440  WT01      1946            0.0000000000
      5915      1952  TIP3      OH2             3.2138586256       12.4909153545       12.4474930744  WT01      1947            0.0000000000
      5916      1952  TIP3      H1              2.9692185757       12.1553167623       13.3099063407  WT01      1947            0.0000000000
      5917      1952  TIP3      H2              3.3112606172       11.7087498904       11.9043891709  WT01      1947            0.0000000000
      5918      1953  TIP3      OH2            12.3894253694        6.0778669832       -4.9445523349  WT01      1948            0.0000000000
      5919      1953  TIP3      H1             12.0039042469        6.5271761837       -4.1924043990  WT01      1948            0.0000000000
      5920      1953  TIP3      H2             12.2085533690        5.1508845824       -4.7889221346  WT01      1948            0.0000000000
      5921      1954  TIP3      OH2           -13.0115287841       15.9897470067        6.6240944063  WT01      1949            0.0000000000
      5922      1954  TIP3      H1            -13.8372789470       15.9681824480        7.1077300639  WT01      1949            0.0000000000
      5923      1954  TIP3      H2            -13.1995471315       16.5232036617        5.8518865913  WT01      1949            0.0000000000
      5924      1955  TIP3      OH2             3.2468615255      -14.4428012370       13.9663349014  WT01      1950            0.0000000000
      5925      1955  TIP3      H1              3.7946288604      -14.2637010162       13.2020667096  WT01      1950            0.0000000000
      5926      1955  TIP3      H2              2.8956714700      -13.5879331452       14.2155294068  WT01      1950            0.0000000000
      5927      1956  TIP3      OH2             4.7284581401       -7.1899334960        6.0200958433  WT01      1951            0.0000000000
      5928      1956  TIP3      H1              4.9576183128       -7.2480597654        5.0925513629  WT01      1951            0.0000000000
      5929      1956  TIP3      H2              5.4780912037       -6.7542719871        6.4256585767  WT01      1951            0.0000000000
      5930      1957  TIP3      OH2            13.8925994603       19.8112670233      -10.7034221571  WT01      1952            0.0000000000
      5931      1957  TIP3      H1             14.7021947699       19.4427147311      -11.0569139584  WT01      1952            0.0000000000
      5932      1957  TIP3      H2             14.1786326861       20.5572809320      -10.1762788627  WT01      1952            0.0000000000
      5933      1958  TIP3      OH2            10.5885271370        6.2572504366        6.3717092281  WT01      1953            0.0000000000
      5934      1958  TIP3      H1              9.7755788937        5.8530457773        6.0684509910  WT01      1953            0.0000000000
      5935      1958  TIP3      H2             11.1805059918        5.5206502492        6.5240673931  WT01      1953            0.0000000000
      5936      1959  TIP3      OH2             7.5623677680        5.9143998872       -4.7614581869  WT01      1954            0.0000000000
      5937      1959  TIP3      H1              8.1795203277        6.6450383425       -4.8004707069  WT01      1954            0.0000000000
      5938      1959  TIP3      H2              8.0716196444        5.1547572806       -5.0440133989  WT01      1954            0.0000000000
      5939      1960  TIP3      OH2            17.0529082285        1.4970299465      -19.1267822723  WT01      1955            0.0000000000
      5940      1960  TIP3      H1             17.4918456541        1.8281571030      -19.9103130973  WT01      1955            0.0000000000
      5941      1960  TIP3      H2             16.3722919437        0.9131861645      -19.4616251042  WT01      1955            0.0000000000
      5942      1961  TIP3      OH2             5.6819151156        6.7707229789       12.9137532386  WT01      1956            0.0000000000
      5943      1961  TIP3      H1              6.0151092316        7.6625889425       12.8148159087  WT01      1956            0.0000000000
      5944      1961  TIP3      H2              5.3230953175        6.7456112899       13.8007986527  WT01      1956            0.0000000000
      5945      1962  TIP3      OH2            13.4208105929       17.6636928572       -8.4352588127  WT01      1957            0.0000000000
      5946      1962  TIP3      H1             12.8242796779       17.2874928371       -9.0824498381  WT01      1957            0.0000000000
      5947      1962  TIP3      H2             14.1605969106       17.0568310005       -8.4094382376  WT01      1957            0.0000000000
      5948      1963  TIP3      OH2            17.5280217171       -0.8177774017       -7.9620927819  WT01      1958            0.0000000000
      5949      1963  TIP3      H1             17.5101557155        0.1301476098       -8.0938151781  WT01      1958            0.0000000000
      5950      1963  TIP3      H2             17.9289051436       -0.9328348636       -7.1005325288  WT01      1958            0.0000000000
      5951      1964  TIP3      OH2            16.5155225798        4.3223286182        1.7415185805  WT01      1959            0.0000000000
      5952      1964  TIP3      H1             15.9549812003        4.7013377700        2.4185542042  WT01      1959            0.0000000000
      5953      1964  TIP3      H2             16.4729451505        4.9468440206        1.0173642560  WT01      1959            0.0000000000
      5954      1965  TIP3      OH2           -15.2085609193        7.3989118572        7.1792760618  WT01      1960            0.0000000000
      5955      1965  TIP3      H1            -14.8823156625        7.9811097119        7.8654549754  WT01      1960            0.0000000000
      5956      1965  TIP3      H2            -14.4252838949        6.9667595927        6.8387568489  WT01      1960            0.0000000000
      5957      1966  TIP3      OH2            10.3971494189       -5.1658706742        3.6065873691  WT01      1961            0.0000000000
      5958      1966  TIP3      H1             11.0709685930       -4.5663108931        3.2860759022  WT01      1961            0.0000000000
      5959      1966  TIP3      H2             10.2054269729       -5.7328649070        2.8595988453  WT01      1961            0.0000000000
      5960      1967  TIP3      OH2            13.0383286091        5.5401879758      -17.2961479934  WT01      1962            0.0000000000
      5961      1967  TIP3      H1             12.3592503859        5.8427425877      -16.6932008276  WT01      1962            0.0000000000
      5962      1967  TIP3      H2             12.6202993875        5.5583325828      -18.1570510972  WT01      1962            0.0000000000
      5963      1968  TIP3      OH2            -6.8372351861        4.3592725466       18.5993958138  WT01      1963            0.0000000000
      5964      1968  TIP3      H1             -5.9596718079        4.3096639640       18.9784120627  WT01      1963            0.0000000000
      5965      1968  TIP3      H2             -6.8048292708        3.7750963035       17.8418208771  WT01      1963            0.0000000000
      5966      1969  TIP3      OH2             7.6869187936      -12.4508842424       19.3336772504  WT01      1964            0.0000000000
      5967      1969  TIP3      H1              6.7813461667      -12.6398744532       19.5795486167  WT01      1964            0.0000000000
      5968      1969  TIP3      H2              8.0089950463      -13.2695129074       18.9563898172  WT01      1964            0.0000000000
      5969      1970  TIP3      OH2            11.8042727367      -15.1651530020       16.3942996045  WT01      1965            0.0000000000
      5970      1970  TIP3      H1             11.4983157992      -14.4415694487       15.8474458718  WT01      1965            0.0000000000
      5971      1970  TIP3      H2             12.7239274769      -14.9633873317       16.5668034716  WT01      1965            0.0000000000
      5972      1971  TIP3      OH2            18.1848044563       -1.4377909149       16.1904155438  WT01      1966            0.0000000000
      5973      1971  TIP3      H1             17.6816708288       -1.4090431367       15.3766207729  WT01      1966            0.0000000000
      5974      1971  TIP3      H2             17.5347854652       -1.3000936892       16.8794341185  WT01      1966            0.0000000000
      5975      1972  TIP3      OH2            11.0417586787        2.2443622359       12.7402779785  WT01      1967            0.0000000000
      5976      1972  TIP3      H1             11.6432620198        2.8415911974       12.2955948225  WT01      1967            0.0000000000
      5977      1972  TIP3      H2             10.7005932672        1.6842203401       12.0430842970  WT01      1967            0.0000000000
      5978      1973  TIP3      OH2           -19.2357864813        9.3989750677       18.2594188910  WT01      1968            0.0000000000
      5979      1973  TIP3      H1            -20.1594567922        9.4709671544       18.5000058966  WT01      1968            0.0000000000
      5980      1973  TIP3      H2            -18.8113608043       10.1247962255       18.7168883465  WT01      1968            0.0000000000
      5981      1974  TIP3      OH2             9.8247979476       13.0901701005       -7.4835028701  WT01      1969            0.0000000000
      5982      1974  TIP3      H1              9.3387235677       12.6051919473       -8.1504059358  WT01      1969            0.0000000000
      5983      1974  TIP3      H2             10.7238400152       13.1134382944       -7.8112432594  WT01      1969            0.0000000000
      5984      1975  TIP3      OH2           -14.8242000243       17.9816452315       -9.5007217703  WT01      1970            0.0000000000
      5985      1975  TIP3      H1            -15.2827150857       17.3318447128       -8.9680351501  WT01      1970            0.0000000000
      5986      1975  TIP3      H2            -15.4608642198       18.2371923964      -10.1682441742  WT01      1970            0.0000000000
      5987      1976  TIP3      OH2            14.2655582492       -6.2505727027      -19.8910826175  WT01      1971            0.0000000000
      5988      1976  TIP3      H1             13.4231490038       -6.6783683972      -20.0446056391  WT01      1971            0.0000000000
      5989      1976  TIP3      H2             14.0427462329       -5.4375682532      -19.4376398079  WT01      1971            0.0000000000
      5990      1977  TIP3      OH2            -5.0166238140       -6.0390605105       15.9832551119  WT01      1972            0.0000000000
      5991      1977  TIP3      H1             -5.0487718061       -5.0935944955       16.1291740351  WT01      1972            0.0000000000
      5992      1977  TIP3      H2             -5.5385169654       -6.4096147179       16.6949776203  WT01      1972            0.0000000000
      5993      1978  TIP3      OH2            18.1261708638       12.4908140036      -11.3883449853  WT01      1973            0.0000000000
      5994      1978  TIP3      H1             18.8160326909       12.3001705715      -12.0239372700  WT01      1973            0.0000000000
      5995      1978  TIP3      H2             17.7426643734       11.6371921555      -11.1871378205  WT01      1973            0.0000000000
      5996      1979  TIP3      OH2            16.3188298069       19.8916736914      -16.6948144095  WT01      1974            0.0000000000
      5997      1979  TIP3      H1             15.9105333284       19.2437248921      -17.2689991796  WT01      1974            0.0000000000
      5998      1979  TIP3      H2             17.1894842308       19.5373873099      -16.5140553291  WT01      1974            0.0000000000
      5999      1980  TIP3      OH2            15.1002558930       12.0201272774       -6.8787797300  WT01      1975            0.0000000000
      6000      1980  TIP3      H1             15.4224715173       12.3066918796       -6.0242098784  WT01      1975            0.0000000000
      6001      1980  TIP3      H2             15.2581832272       11.0761190264       -6.8905776146  WT01      1975            0.0000000000
      6002      1981  TIP3      OH2            14.2547915137       -1.9657878446       16.6965876536  WT01      1976            0.0000000000
      6003      1981  TIP3      H1             13.4393811078       -1.5897101065       16.3650711142  WT01      1976            0.0000000000
      6004      1981  TIP3      H2             14.9192135390       -1.3034465747       16.5066423315  WT01      1976            0.0000000000
      6005      1982  TIP3      OH2            -1.3026737100       14.4277300630       11.4581472633  WT01      1977            0.0000000000
      6006      1982  TIP3      H1             -1.7555660486       14.4302466826       10.6148715034  WT01      1977            0.0000000000
      6007      1982  TIP3      H2             -0.7211487486       13.6685977085       11.4159738274  WT01      1977            0.0000000000
      6008      1983  TIP3      OH2           -19.7554187248       13.4710756710       15.4935891847  WT01      1978            0.0000000000
      6009      1983  TIP3      H1            -19.6267007100       13.4466824469       16.4417813880  WT01      1978            0.0000000000
      6010      1983  TIP3      H2            -18.8869872837       13.3003063822       15.1290394719  WT01      1978            0.0000000000
      6011      1984  TIP3      OH2             3.6325635761       16.5820335578       11.0131293955  WT01      1979            0.0000000000
      6012      1984  TIP3      H1              3.8795105360       16.0271092810       10.2733266805  WT01      1979            0.0000000000
      6013      1984  TIP3      H2              2.6783872842       16.5175954891       11.0534673456  WT01      1979            0.0000000000
      6014      1985  TIP3      OH2            11.1248195572        8.9538043495      -19.3520567242  WT01      1980            0.0000000000
      6015      1985  TIP3      H1             11.5497353952        9.3444154022      -20.1156674544  WT01      1980            0.0000000000
      6016      1985  TIP3      H2             10.2018027055        8.8900918503      -19.5974389159  WT01      1980            0.0000000000
      6017      1986  TIP3      OH2           -17.5527552329        0.2294194537       14.9402988965  WT01      1981            0.0000000000
      6018      1986  TIP3      H1            -17.3803426513       -0.4792731835       14.3204114400  WT01      1981            0.0000000000
      6019      1986  TIP3      H2            -17.9503157914       -0.2038183142       15.6956017826  WT01      1981            0.0000000000
      6020      1987  TIP3      OH2           -18.0950450930       10.5387115282       10.3413142837  WT01      1982            0.0000000000
      6021      1987  TIP3      H1            -18.9680248594       10.4084948482        9.9709337296  WT01      1982            0.0000000000
      6022      1987  TIP3      H2            -18.2462230928       11.0436343925       11.1403323840  WT01      1982            0.0000000000
      6023      1988  TIP3      OH2            15.5857515151        0.3382976196       17.4568866431  WT01      1983            0.0000000000
      6024      1988  TIP3      H1             16.2663920004        0.9972791337       17.5936481330  WT01      1983            0.0000000000
      6025      1988  TIP3      H2             15.3108065552        0.0904896771       18.3396257346  WT01      1983            0.0000000000
      6026      1989  TIP3      OH2           -18.4123019949      -13.3656187249      -11.3570146253  WT01      1984            0.0000000000
      6027      1989  TIP3      H1            -18.1267644407      -12.4678700868      -11.5265654996  WT01      1984            0.0000000000
      6028      1989  TIP3      H2            -17.7533894170      -13.7180963036      -10.7588293845  WT01      1984            0.0000000000
      6029      1990  TIP3      OH2           -10.3352651499        3.8370650017       12.1568120703  WT01      1985            0.0000000000
      6030      1990  TIP3      H1            -10.1242897516        4.3282559472       11.3628015871  WT01      1985            0.0000000000
      6031      1990  TIP3      H2            -10.5476340364        4.5085397560       12.8050812439  WT01      1985            0.0000000000
      6032      1991  TIP3      OH2           -14.8214476530        2.3290234331        8.4576728756  WT01      1986            0.0000000000
      6033      1991  TIP3      H1            -15.1375505058        3.0875912459        8.9484739257  WT01      1986            0.0000000000
      6034      1991  TIP3      H2            -13.8861950756        2.2869108288        8.6570743707  WT01      1986            0.0000000000
      6035      1992  TIP3      OH2            16.4499623390       16.9483384417        2.6148557699  WT01      1987            0.0000000000
      6036      1992  TIP3      H1             16.0624965795       17.1996293696        1.7764316732  WT01      1987            0.0000000000
      6037      1992  TIP3      H2             15.8828619266       16.2498481100        2.9415669418  WT01      1987            0.0000000000
      6038      1993  TIP3      OH2            15.5227342709       11.0711457495       11.2209851877  WT01      1988            0.0000000000
      6039      1993  TIP3      H1             15.4623844542       10.4708611405       11.9641191588  WT01      1988            0.0000000000
      6040      1993  TIP3      H2             16.1325279366       11.7500847167       11.5098196993  WT01      1988            0.0000000000
      6041      1994  TIP3      OH2             0.1004792042        3.7129807563      -12.6104426771  WT01      1989            0.0000000000
      6042      1994  TIP3      H1             -0.2834246702        3.3364875868      -11.8185446284  WT01      1989            0.0000000000
      6043      1994  TIP3      H2             -0.6429369467        3.8425634373      -13.1993166589  WT01      1989            0.0000000000
      6044      1995  TIP3      OH2            15.3343263603      -14.8049101245       -5.6637010643  WT01      1990            0.0000000000
      6045      1995  TIP3      H1             15.7735774557      -14.4448323943       -4.8932243844  WT01      1990            0.0000000000
      6046      1995  TIP3      H2             14.5656455162      -14.2473743733       -5.7841811752  WT01      1990            0.0000000000
      6047      1996  TIP3      OH2             5.2892173395      -18.7586577862       16.4986605738  WT01      1991            0.0000000000
      6048      1996  TIP3      H1              5.5984607567      -18.0396936871       15.9475789608  WT01      1991            0.0000000000
      6049      1996  TIP3      H2              4.5830042649      -19.1615800883       15.9935382889  WT01      1991            0.0000000000
      6050      1997  TIP3      OH2             4.3531178111        4.5217131674      -15.9501093577  WT01      1992            0.0000000000
      6051      1997  TIP3      H1              3.8012319579        5.3037626286      -15.9428666855  WT01      1992            0.0000000000
      6052      1997  TIP3      H2              3.7355922381        3.7917735053      -15.9044796811  WT01      1992            0.0000000000
      6053      1998  TIP3      OH2            12.4848887707       14.6249613970       11.9215364707  WT01      1993            0.0000000000
      6054      1998  TIP3      H1             13.0805237321       14.2078781554       12.5440253247  WT01      1993            0.0000000000
      6055      1998  TIP3      H2             11.6105579497       14.3840587246       12.2277117944  WT01      1993            0.0000000000
      6056      1999  TIP3      OH2             1.2327842513       13.8709330095      -10.6125461338  WT01      1994            0.0000000000
      6057      1999  TIP3      H1              1.5119578687       13.3074952649      -11.3342329151  WT01      1994            0.0000000000
      6058      1999  TIP3      H2              0.9980176628       13.2636189517       -9.9109151088  WT01      1994            0.0000000000
      6059      2000  TIP3      OH2            19.0151559181       13.2905479714       -8.9025697237  WT01      1995            0.0000000000
      6060      2000  TIP3      H1             18.7175963883       13.0151790005       -9.7696695260  WT01      1995            0.0000000000
      6061      2000  TIP3      H2             19.9233684586       13.5620311920       -9.0355308205  WT01      1995            0.0000000000
      6062      2001  TIP3      OH2             8.4912317793       10.7527716354       -9.1562126688  WT01      1996            0.0000000000
      6063      2001  TIP3      H1              7.5733969136       10.5081297677       -9.2743707273  WT01      1996            0.0000000000
      6064      2001  TIP3      H2              8.7378473013       11.1661254217       -9.9835887881  WT01      1996            0.0000000000
      6065      2002  TIP3      OH2            10.2289308514        9.3054730902       -7.2633956625  WT01      1997            0.0000000000
      6066      2002  TIP3      H1             10.6756462213        8.8577379876       -7.9818735448  WT01      1997            0.0000000000
      6067      2002  TIP3      H2              9.4943733172        9.7554174396       -7.6807769300  WT01      1997            0.0000000000
      6068      2003  TIP3      OH2           -17.1171511446       14.2153830265       -5.1257429384  WT01      1998            0.0000000000
      6069      2003  TIP3      H1            -16.4451129722       14.2367489391       -5.8070211516  WT01      1998            0.0000000000
      6070      2003  TIP3      H2            -16.8016527956       13.5655512340       -4.4977212475  WT01      1998            0.0000000000
      6071      2004  TIP3      OH2            11.7440931626       16.5167559994        0.0208318243  WT01      1999            0.0000000000
      6072      2004  TIP3      H1             12.0517851703       16.2032351397       -0.8296163576  WT01      1999            0.0000000000
      6073      2004  TIP3      H2             10.8710736916       16.8679868004       -0.1543987058  WT01      1999            0.0000000000
      6074      2005  TIP3      OH2            10.8558842850       10.1595175752      -13.7464433537  WT01      2000            0.0000000000
      6075      2005  TIP3      H1             10.8464134542        9.5574901280      -13.0023297418  WT01      2000            0.0000000000
      6076      2005  TIP3      H2             11.7815526143       10.2440734634      -13.9749608737  WT01      2000            0.0000000000
      6077      2006  TIP3      OH2             6.9229586364        8.1355926662       17.4932205372  WT01      2001            0.0000000000
      6078      2006  TIP3      H1              6.8472142390        7.6560893913       18.3181879346  WT01      2001            0.0000000000
      6079      2006  TIP3      H2              7.7483550472        7.8329123753       17.1146215177  WT01      2001            0.0000000000
      6080      2007  TIP3      OH2             7.1544688877       10.2406885154       15.9076093566  WT01      2002            0.0000000000
      6081      2007  TIP3      H1              8.0611194531       10.4450582995       15.6785906791  WT01      2002            0.0000000000
      6082      2007  TIP3      H2              7.2235738565        9.5582030289       16.5751944636  WT01      2002            0.0000000000
      6083      2008  TIP3      OH2            12.9078121109      -17.1025774798       -0.8802709790  WT01      2003            0.0000000000
      6084      2008  TIP3      H1             12.7503371682      -17.5008714039       -0.0242362814  WT01      2003            0.0000000000
      6085      2008  TIP3      H2             12.8827277904      -17.8362175343       -1.4945794181  WT01      2003            0.0000000000
      6086      2009  TIP3      OH2            16.0148434788       -7.8630935602      -12.1536839223  WT01      2004            0.0000000000
      6087      2009  TIP3      H1             16.2611317431       -8.7039417546      -12.5391034546  WT01      2004            0.0000000000
      6088      2009  TIP3      H2             15.0613204330       -7.9029814593      -12.0799644023  WT01      2004            0.0000000000
      6089      2010  TIP3      OH2             6.6780515201      -18.5879670508        4.5461124382  WT01      2005            0.0000000000
      6090      2010  TIP3      H1              6.5314470910      -18.0262212495        5.3071516008  WT01      2005            0.0000000000
      6091      2010  TIP3      H2              7.5890658790      -18.8700673723        4.6279907479  WT01      2005            0.0000000000
      6092      2011  TIP3      OH2           -17.3776132704       12.4681580325       14.4727886812  WT01      2006            0.0000000000
      6093      2011  TIP3      H1            -17.7077139218       11.5889894170       14.2875107374  WT01      2006            0.0000000000
      6094      2011  TIP3      H2            -16.4878142003       12.3271887319       14.7962343211  WT01      2006            0.0000000000
      6095      2012  TIP3      OH2            16.0425898891       -6.8577569237       -1.8247745136  WT01      2007            0.0000000000
      6096      2012  TIP3      H1             15.1817434474       -6.5533793881       -2.1120540477  WT01      2007            0.0000000000
      6097      2012  TIP3      H2             16.3803552008       -7.3582179395       -2.5675296394  WT01      2007            0.0000000000
      6098      2013  TIP3      OH2             7.9745988813      -19.6087209542       -7.3031146193  WT01      2008            0.0000000000
      6099      2013  TIP3      H1              7.5075775689      -19.6650626222       -6.4694788947  WT01      2008            0.0000000000
      6100      2013  TIP3      H2              7.7300359742      -18.7540063887       -7.6579157004  WT01      2008            0.0000000000
      6101      2014  TIP3      OH2            18.0781060020        6.4450332969      -11.5643757512  WT01      2009            0.0000000000
      6102      2014  TIP3      H1             17.1967305821        6.3896653397      -11.9336230524  WT01      2009            0.0000000000
      6103      2014  TIP3      H2             18.5731876080        6.9603054732      -12.2012592561  WT01      2009            0.0000000000
      6104      2015  TIP3      OH2           -13.4322442886       14.9442816508        0.4882455137  WT01      2010            0.0000000000
      6105      2015  TIP3      H1            -13.8254577017       14.3162436251        1.0942019983  WT01      2010            0.0000000000
      6106      2015  TIP3      H2            -12.4994267236       14.7296446859        0.4920104574  WT01      2010            0.0000000000
      6107      2016  TIP3      OH2            15.1035790954       15.1129750427       -4.1854381575  WT01      2011            0.0000000000
      6108      2016  TIP3      H1             14.5343668040       15.5662866164       -4.8073206188  WT01      2011            0.0000000000
      6109      2016  TIP3      H2             15.9809844294       15.1953944856       -4.5590672868  WT01      2011            0.0000000000
      6110      2017  TIP3      OH2             2.5517602963       11.9814372062       -6.9845552456  WT01      2012            0.0000000000
      6111      2017  TIP3      H1              2.0407056550       11.9037984608       -7.7901774833  WT01      2012            0.0000000000
      6112      2017  TIP3      H2              2.0887581727       11.4313377135       -6.3526918167  WT01      2012            0.0000000000
      6113      2018  TIP3      OH2           -16.5264631458       12.7865303433       -2.9502881884  WT01      2013            0.0000000000
      6114      2018  TIP3      H1            -15.9546018861       12.3495873791       -2.3191880722  WT01      2013            0.0000000000
      6115      2018  TIP3      H2            -16.6214878682       13.6768196888       -2.6117811802  WT01      2013            0.0000000000
      6116      2019  TIP3      OH2            -3.2476973976       -8.4599275179        9.4486645060  WT01      2014            0.0000000000
      6117      2019  TIP3      H1             -2.5733266271       -8.3368687615        8.7805983285  WT01      2014            0.0000000000
      6118      2019  TIP3      H2             -3.0252949621       -9.2934085633        9.8634877391  WT01      2014            0.0000000000
      6119      2020  TIP3      OH2            13.1287412607       17.8157930514        7.0161911218  WT01      2015            0.0000000000
      6120      2020  TIP3      H1             12.6972148860       17.4518080510        6.2431893633  WT01      2015            0.0000000000
      6121      2020  TIP3      H2             14.0527774422       17.8694678826        6.7722485899  WT01      2015            0.0000000000
      6122      2021  TIP3      OH2           -16.2180303327      -18.2566864158       18.7330792576  WT01      2016            0.0000000000
      6123      2021  TIP3      H1            -15.5761826115      -17.5493494734       18.7958308617  WT01      2016            0.0000000000
      6124      2021  TIP3      H2            -16.6191861480      -18.1410168986       17.8717277698  WT01      2016            0.0000000000
      6125      2022  TIP3      OH2            12.6076030046       16.7560307272        2.6832672191  WT01      2017            0.0000000000
      6126      2022  TIP3      H1             12.2726521596       17.2046570167        1.9068818799  WT01      2017            0.0000000000
      6127      2022  TIP3      H2             12.2130321347       17.2234934355        3.4194901853  WT01      2017            0.0000000000
      6128      2023  TIP3      OH2           -13.1451753056       11.2158565338       -5.6695123848  WT01      2018            0.0000000000
      6129      2023  TIP3      H1            -13.1961818025       11.9091232065       -5.0114763153  WT01      2018            0.0000000000
      6130      2023  TIP3      H2            -12.4205597833       10.6620190016       -5.3789471703  WT01      2018            0.0000000000
      6131      2024  TIP3      OH2            14.3603701342      -12.9352029228       -2.5642800741  WT01      2019            0.0000000000
      6132      2024  TIP3      H1             14.2753239697      -12.3385131411       -1.8206670932  WT01      2019            0.0000000000
      6133      2024  TIP3      H2             15.2869929742      -12.8935516127       -2.8006422787  WT01      2019            0.0000000000
      6134      2025  TIP3      OH2            -0.4974618446       14.0211004102       -7.8508499010  WT01      2020            0.0000000000
      6135      2025  TIP3      H1             -1.4124751923       14.1244503630       -7.5895049723  WT01      2020            0.0000000000
      6136      2025  TIP3      H2             -0.1645260430       14.9160133881       -7.9180535104  WT01      2020            0.0000000000
      6137      2026  TIP3      OH2            16.0201936940       19.0248402218       -8.6188718496  WT01      2021            0.0000000000
      6138      2026  TIP3      H1             16.3978331407       18.8750903434       -9.4855870469  WT01      2021            0.0000000000
      6139      2026  TIP3      H2             15.1173623832       18.7157904530       -8.6938096616  WT01      2021            0.0000000000
      6140      2027  TIP3      OH2            -7.3495337120        3.4484250007      -11.8479240839  WT01      2022            0.0000000000
      6141      2027  TIP3      H1             -7.8779444447        2.6509893020      -11.8812439740  WT01      2022            0.0000000000
      6142      2027  TIP3      H2             -6.7780330501        3.3897848312      -12.6135481006  WT01      2022            0.0000000000
      6143      2028  TIP3      OH2            -0.9398190733      -11.2804018400        9.3171941742  WT01      2023            0.0000000000
      6144      2028  TIP3      H1             -0.7697432585      -12.2223700226        9.3157901849  WT01      2023            0.0000000000
      6145      2028  TIP3      H2             -0.6118188420      -10.9760521295        8.4710151666  WT01      2023            0.0000000000
      6146      2029  TIP3      OH2             7.4301940427      -13.4653899244       -9.4820640285  WT01      2024            0.0000000000
      6147      2029  TIP3      H1              6.9534103295      -13.6269139612      -10.2962010485  WT01      2024            0.0000000000
      6148      2029  TIP3      H2              7.5303276904      -12.5140773280       -9.4472874897  WT01      2024            0.0000000000
      6149      2030  TIP3      OH2           -15.1123882198      -13.7086210737       -6.9756915843  WT01      2025            0.0000000000
      6150      2030  TIP3      H1            -14.8982920901      -13.9457509982       -6.0733811848  WT01      2025            0.0000000000
      6151      2030  TIP3      H2            -14.2737816334      -13.7357314683       -7.4363821864  WT01      2025            0.0000000000
      6152      2031  TIP3      OH2             4.6257404450        3.3108996090       -7.1444606002  WT01      2026            0.0000000000
      6153      2031  TIP3      H1              3.7825249926        3.0238267794       -7.4949013263  WT01      2026            0.0000000000
      6154      2031  TIP3      H2              4.9546806954        3.9348375819       -7.7915552831  WT01      2026            0.0000000000
      6155      2032  TIP3      OH2            -3.1181143843      -12.4041317246        3.4174231869  WT01      2027            0.0000000000
      6156      2032  TIP3      H1             -3.7785413635      -13.0293001253        3.7161412595  WT01      2027            0.0000000000
      6157      2032  TIP3      H2             -3.0218660460      -11.7904045559        4.1456450150  WT01      2027            0.0000000000
      6158      2033  TIP3      OH2           -16.7819090630       10.5035083020       -4.7078511676  WT01      2028            0.0000000000
      6159      2033  TIP3      H1            -16.3151837880       11.1158052925       -4.1390878388  WT01      2028            0.0000000000
      6160      2033  TIP3      H2            -17.6827591670       10.5146231862       -4.3844669369  WT01      2028            0.0000000000
      6161      2034  TIP3      OH2           -10.4716050348       13.6639790983      -19.6807407782  WT01      2029            0.0000000000
      6162      2034  TIP3      H1            -10.7229354935       12.8773644925      -20.1647885790  WT01      2029            0.0000000000
      6163      2034  TIP3      H2            -10.9199251972       14.3780747005      -20.1338503830  WT01      2029            0.0000000000
      6164      2035  TIP3      OH2             1.6890401661       15.1811927948       -1.7270682324  WT01      2030            0.0000000000
      6165      2035  TIP3      H1              2.2746145227       15.8929223178       -1.9854779265  WT01      2030            0.0000000000
      6166      2035  TIP3      H2              1.5148222840       15.3386850536       -0.7991263544  WT01      2030            0.0000000000
      6167      2036  TIP3      OH2           -18.7713204704      -10.4823853197        6.2554579312  WT01      2031            0.0000000000
      6168      2036  TIP3      H1            -18.0084526669      -10.6075555949        5.6910140212  WT01      2031            0.0000000000
      6169      2036  TIP3      H2            -18.6044788964       -9.6534638482        6.7041057823  WT01      2031            0.0000000000
      6170      2037  TIP3      OH2            18.5388508737       11.5972914296       -6.5321381719  WT01      2032            0.0000000000
      6171      2037  TIP3      H1             17.8353922238       10.9647979578       -6.6781852439  WT01      2032            0.0000000000
      6172      2037  TIP3      H2             18.1125174850       12.4512744870       -6.6041422722  WT01      2032            0.0000000000
      6173      2038  TIP3      OH2           -19.5040576804      -19.2531238953      -11.2449172859  WT01      2033            0.0000000000
      6174      2038  TIP3      H1            -19.6017748552      -18.4549772678      -10.7256436337  WT01      2033            0.0000000000
      6175      2038  TIP3      H2            -19.4725190792      -19.9579408621      -10.5980245815  WT01      2033            0.0000000000
      6176      2039  TIP3      OH2            -0.9161725114        2.9005930398      -17.9322373842  WT01      2034            0.0000000000
      6177      2039  TIP3      H1             -0.8071354018        3.5829042041      -17.2698219595  WT01      2034            0.0000000000
      6178      2039  TIP3      H2             -0.0662103641        2.8529709252      -18.3698768403  WT01      2034            0.0000000000
      6179      2040  TIP3      OH2             5.9784669116        8.2934093034       -6.4452193143  WT01      2035            0.0000000000
      6180      2040  TIP3      H1              5.0940780599        8.0987673395       -6.7553848765  WT01      2035            0.0000000000
      6181      2040  TIP3      H2              6.3037124834        7.4586492996       -6.1081394051  WT01      2035            0.0000000000
      6182      2041  TIP3      OH2             8.1447606048        0.0373206820        2.0167400197  WT01      2036            0.0000000000
      6183      2041  TIP3      H1              8.2315111208        0.0801045422        2.9690402351  WT01      2036            0.0000000000
      6184      2041  TIP3      H2              8.8008171700       -0.6043587754        1.7445836892  WT01      2036            0.0000000000
      6185      2042  TIP3      OH2            16.3462363497       12.1064113351       -4.0034952882  WT01      2037            0.0000000000
      6186      2042  TIP3      H1             16.1013953088       12.6257743052       -3.2376318663  WT01      2037            0.0000000000
      6187      2042  TIP3      H2             16.2887187037       11.1984112861       -3.7060739667  WT01      2037            0.0000000000
      6188      2043  TIP3      OH2             8.9567078946      -19.2187552846        1.1651882194  WT01      2038            0.0000000000
      6189      2043  TIP3      H1              8.6822733295      -18.5621059829        0.5250873093  WT01      2038            0.0000000000
      6190      2043  TIP3      H2              8.6683758347      -18.8677640618        2.0077448025  WT01      2038            0.0000000000
      6191      2044  TIP3      OH2            17.7806902759       -0.5215135818       -3.0980226594  WT01      2039            0.0000000000
      6192      2044  TIP3      H1             17.1615401788       -0.0737951724       -3.6745928582  WT01      2039            0.0000000000
      6193      2044  TIP3      H2             17.7014636201       -0.0653024464       -2.2602718922  WT01      2039            0.0000000000
      6194      2045  TIP3      OH2            10.3150886427       -3.7997365861      -12.4753725673  WT01      2040            0.0000000000
      6195      2045  TIP3      H1              9.9452955394       -3.9108713506      -13.3512343920  WT01      2040            0.0000000000
      6196      2045  TIP3      H2             11.1899694636       -4.1836714345      -12.5337625696  WT01      2040            0.0000000000
      6197      2046  TIP3      OH2            13.7117503398        1.6354305544      -14.6733620859  WT01      2041            0.0000000000
      6198      2046  TIP3      H1             13.2028164996        0.9675642496      -15.1328974558  WT01      2041            0.0000000000
      6199      2046  TIP3      H2             14.5185108079        1.1884308476      -14.4173140038  WT01      2041            0.0000000000
      6200      2047  TIP3      OH2             8.8297168389        6.6957880743        9.4206828669  WT01      2042            0.0000000000
      6201      2047  TIP3      H1              9.3409409714        7.0262073262        8.6819645069  WT01      2042            0.0000000000
      6202      2047  TIP3      H2              7.9224253065        6.9022251850        9.1960996847  WT01      2042            0.0000000000
      6203      2048  TIP3      OH2             9.9556305783      -12.6124481565        3.7995551069  WT01      2043            0.0000000000
      6204      2048  TIP3      H1             10.4185510472      -13.2827793132        3.2969692030  WT01      2043            0.0000000000
      6205      2048  TIP3      H2             10.6450497192      -12.1533675675        4.2793238762  WT01      2043            0.0000000000
      6206      2049  TIP3      OH2            15.6943421988        0.8629844349       -4.0096662873  WT01      2044            0.0000000000
      6207      2049  TIP3      H1             15.0783588861        0.9336929082       -3.2804223766  WT01      2044            0.0000000000
      6208      2049  TIP3      H2             15.1761135707        1.0831129598       -4.7837556443  WT01      2044            0.0000000000
      6209      2050  TIP3      OH2            15.1720674454       16.0314562683      -15.1306799435  WT01      2045            0.0000000000
      6210      2050  TIP3      H1             14.6404112759       16.0448802860      -15.9265400595  WT01      2045            0.0000000000
      6211      2050  TIP3      H2             14.7035886644       16.5999759643      -14.5194968301  WT01      2045            0.0000000000
      6212      2051  TIP3      OH2            16.6130129896      -11.5696159699       11.8764984408  WT01      2046            0.0000000000
      6213      2051  TIP3      H1             16.2521292492      -10.7176851256       11.6311240870  WT01      2046            0.0000000000
      6214      2051  TIP3      H2             17.4189552595      -11.6450000886       11.3656108765  WT01      2046            0.0000000000
      6215      2052  TIP3      OH2             0.8024129269       16.3386442535       11.5760817712  WT01      2047            0.0000000000
      6216      2052  TIP3      H1             -0.0586301717       16.0762824861       11.2505009111  WT01      2047            0.0000000000
      6217      2052  TIP3      H2              0.6692972161       16.4898340933       12.5118454438  WT01      2047            0.0000000000
      6218      2053  TIP3      OH2             9.5063044935       19.4804032851      -13.4460467209  WT01      2048            0.0000000000
      6219      2053  TIP3      H1              8.6643399428       19.3051880778      -13.0257764060  WT01      2048            0.0000000000
      6220      2053  TIP3      H2              9.6791867336       20.4035773945      -13.2614035355  WT01      2048            0.0000000000
      6221      2054  TIP3      OH2           -18.4916533402       -2.7140389973       -8.8106231805  WT01      2049            0.0000000000
      6222      2054  TIP3      H1            -18.1566900140       -3.2918909608       -8.1249713086  WT01      2049            0.0000000000
      6223      2054  TIP3      H2            -19.3845757827       -3.0208715649       -8.9680242546  WT01      2049            0.0000000000
      6224      2055  TIP3      OH2             8.4456180096      -14.1422959125      -16.5195915231  WT01      2050            0.0000000000
      6225      2055  TIP3      H1              8.6811791723      -13.5692807863      -17.2492465202  WT01      2050            0.0000000000
      6226      2055  TIP3      H2              7.7085006831      -14.6575242660      -16.8473560755  WT01      2050            0.0000000000
      6227      2056  TIP3      OH2             6.3638355281      -18.9963302603       -5.1195029056  WT01      2051            0.0000000000
      6228      2056  TIP3      H1              6.1334100191      -18.6816174245       -4.2453795007  WT01      2051            0.0000000000
      6229      2056  TIP3      H2              6.1464034830      -18.2683318807       -5.7017171927  WT01      2051            0.0000000000
      6230      2057  TIP3      OH2           -17.0843285242        4.4177665997      -19.5883127257  WT01      2052            0.0000000000
      6231      2057  TIP3      H1            -17.8376406890        3.9544706259      -19.2221031763  WT01      2052            0.0000000000
      6232      2057  TIP3      H2            -16.7144220292        3.8077110937      -20.2264610437  WT01      2052            0.0000000000
      6233      2058  TIP3      OH2            11.3424608818        8.7766123436        7.3982773661  WT01      2053            0.0000000000
      6234      2058  TIP3      H1             11.1943170553        8.0058603833        6.8503479607  WT01      2053            0.0000000000
      6235      2058  TIP3      H2             12.2291774961        9.0613798988        7.1772052140  WT01      2053            0.0000000000
      6236      2059  TIP3      OH2             3.3378565134        5.0617493514       13.6755811877  WT01      2054            0.0000000000
      6237      2059  TIP3      H1              3.1902389012        4.6717240111       14.5371617617  WT01      2054            0.0000000000
      6238      2059  TIP3      H2              4.0727905745        4.5682559520       13.3114822977  WT01      2054            0.0000000000
      6239      2060  TIP3      OH2            13.7480654445       14.5274176382       -7.1931134508  WT01      2055            0.0000000000
      6240      2060  TIP3      H1             14.2281969734       13.7053514270       -7.0935510564  WT01      2055            0.0000000000
      6241      2060  TIP3      H2             14.3083253584       15.0664494879       -7.7514908367  WT01      2055            0.0000000000
      6242      2061  TIP3      OH2           -18.0821094154       -7.8537050478      -12.9339418404  WT01      2056            0.0000000000
      6243      2061  TIP3      H1            -17.2377959801       -7.5274310964      -13.2452486707  WT01      2056            0.0000000000
      6244      2061  TIP3      H2            -18.0076159942       -8.8062155799      -12.9923047353  WT01      2056            0.0000000000
      6245      2062  TIP3      OH2            12.5591104899        5.8648287351      -11.5348354644  WT01      2057            0.0000000000
      6246      2062  TIP3      H1             12.1452215806        5.7723638811      -10.6767107459  WT01      2057            0.0000000000
      6247      2062  TIP3      H2             12.7953824741        4.9715683697      -11.7848220243  WT01      2057            0.0000000000
      6248      2063  TIP3      OH2            -6.8897485326       16.4994658366        2.4779522987  WT01      2058            0.0000000000
      6249      2063  TIP3      H1             -6.7386124228       15.9352920104        1.7196004138  WT01      2058            0.0000000000
      6250      2063  TIP3      H2             -6.0301010801       16.8711373260        2.6756853820  WT01      2058            0.0000000000
      6251      2064  TIP3      OH2           -16.8392716782       17.0316574810        1.5886083398  WT01      2059            0.0000000000
      6252      2064  TIP3      H1            -16.5600797046       17.7697923588        1.0469068028  WT01      2059            0.0000000000
      6253      2064  TIP3      H2            -16.8471085083       16.2844242216        0.9904337405  WT01      2059            0.0000000000
      6254      2065  TIP3      OH2            14.9921521366       16.5035360300       10.9228645082  WT01      2060            0.0000000000
      6255      2065  TIP3      H1             14.2664253670       15.9105880391       11.1177109787  WT01      2060            0.0000000000
      6256      2065  TIP3      H2             15.2901163824       16.2401503501       10.0521882751  WT01      2060            0.0000000000
      6257      2066  TIP3      OH2           -11.9453888365       15.8570948242       -5.1973149983  WT01      2061            0.0000000000
      6258      2066  TIP3      H1            -11.7542311784       16.4100677145       -5.9548844957  WT01      2061            0.0000000000
      6259      2066  TIP3      H2            -11.7342729588       16.4046709324       -4.4411256682  WT01      2061            0.0000000000
      6260      2067  TIP3      OH2             5.4253201905      -16.8969554357       -2.6104632351  WT01      2062            0.0000000000
      6261      2067  TIP3      H1              5.7688751314      -17.7482488694       -2.3393519970  WT01      2062            0.0000000000
      6262      2067  TIP3      H2              6.0084950565      -16.6163709301       -3.3157370982  WT01      2062            0.0000000000
      6263      2068  TIP3      OH2            19.5791365441       18.5544526365       11.8113553599  WT01      2063            0.0000000000
      6264      2068  TIP3      H1             19.7393026025       17.8269917362       12.4125036638  WT01      2063            0.0000000000
      6265      2068  TIP3      H2             19.7840852725       18.2002779038       10.9460299364  WT01      2063            0.0000000000
      6266      2069  TIP3      OH2             7.2429276816       18.2290907923      -11.9632138554  WT01      2064            0.0000000000
      6267      2069  TIP3      H1              7.1724069353       17.5536651690      -11.2886333466  WT01      2064            0.0000000000
      6268      2069  TIP3      H2              6.6418868684       17.9443875357      -12.6516365508  WT01      2064            0.0000000000
      6269      2070  TIP3      OH2           -19.5845350274      -16.3687230883      -10.1586758804  WT01      2065            0.0000000000
      6270      2070  TIP3      H1            -20.3142382280      -15.7899708844      -10.3796078530  WT01      2065            0.0000000000
      6271      2070  TIP3      H2            -18.8124024886      -15.8038328028      -10.1893698367  WT01      2065            0.0000000000
      6272      2071  TIP3      OH2           -17.9220998139      -14.7479046726       10.8496214045  WT01      2066            0.0000000000
      6273      2071  TIP3      H1            -17.7103013736      -15.6789494963       10.7823252823  WT01      2066            0.0000000000
      6274      2071  TIP3      H2            -17.3196624343      -14.4121061143       11.5133535364  WT01      2066            0.0000000000
      6275      2072  TIP3      OH2           -18.5918364599        4.0847819661       -3.5481616787  WT01      2067            0.0000000000
      6276      2072  TIP3      H1            -18.6696479007        4.8347338225       -2.9584588690  WT01      2067            0.0000000000
      6277      2072  TIP3      H2            -17.8807499592        3.5614814909       -3.1783719921  WT01      2067            0.0000000000
      6278      2073  TIP3      OH2             8.2659399985       -6.3884908679      -13.0960072178  WT01      2068            0.0000000000
      6279      2073  TIP3      H1              8.5038860128       -5.7387473890      -13.7574049174  WT01      2068            0.0000000000
      6280      2073  TIP3      H2              7.9184369619       -5.8735160146      -12.3678078282  WT01      2068            0.0000000000
      6281      2074  TIP3      OH2            17.8421252947       10.2162739315        2.2770289615  WT01      2069            0.0000000000
      6282      2074  TIP3      H1             18.4453795057       10.9130913936        2.0186463143  WT01      2069            0.0000000000
      6283      2074  TIP3      H2             17.9530283547       10.1420669276        3.2248821374  WT01      2069            0.0000000000
      6284      2075  TIP3      OH2            19.7507959700       14.7654797723       11.3741474781  WT01      2070            0.0000000000
      6285      2075  TIP3      H1             19.7404457273       15.4541738798       10.7094482154  WT01      2070            0.0000000000
      6286      2075  TIP3      H2             19.8118972597       15.2354903119       12.2057655010  WT01      2070            0.0000000000
      6287      2076  TIP3      OH2            15.5263611733       10.7949269933      -16.6429785077  WT01      2071            0.0000000000
      6288      2076  TIP3      H1             14.7226001830       10.4731806893      -16.2347146256  WT01      2071            0.0000000000
      6289      2076  TIP3      H2             16.1070163570       10.9912474388      -15.9077712911  WT01      2071            0.0000000000
      6290      2077  TIP3      OH2            -8.9414712260       10.2285786748        7.4295814786  WT01      2072            0.0000000000
      6291      2077  TIP3      H1             -8.0404791694       10.5336348515        7.3228769614  WT01      2072            0.0000000000
      6292      2077  TIP3      H2             -9.4802162424       10.9734203054        7.1627546365  WT01      2072            0.0000000000
      6293      2078  TIP3      OH2             4.6448286037       -7.0376227119       -2.1086647010  WT01      2073            0.0000000000
      6294      2078  TIP3      H1              4.4573961472       -7.4993198111       -1.2913907727  WT01      2073            0.0000000000
      6295      2078  TIP3      H2              4.8039908742       -7.7335027636       -2.7463559557  WT01      2073            0.0000000000
      6296      2079  TIP3      OH2            -5.1920361804       19.0459926212       -6.3664003534  WT01      2074            0.0000000000
      6297      2079  TIP3      H1             -5.3831768552       19.7786522543       -5.7808178097  WT01      2074            0.0000000000
      6298      2079  TIP3      H2             -5.4552571484       19.3562727437       -7.2328140990  WT01      2074            0.0000000000
      6299      2080  TIP3      OH2             3.5185573952       15.4078882835       18.9052276339  WT01      2075            0.0000000000
      6300      2080  TIP3      H1              2.9944614045       15.0711795198       18.1784660416  WT01      2075            0.0000000000
      6301      2080  TIP3      H2              2.9929627949       16.1195566216       19.2706182519  WT01      2075            0.0000000000
      6302      2081  TIP3      OH2            11.4060988815       11.1813638306        4.0685521906  WT01      2076            0.0000000000
      6303      2081  TIP3      H1             10.8015743828       10.4834479381        3.8161728165  WT01      2076            0.0000000000
      6304      2081  TIP3      H2             11.0262035968       11.5514100956        4.8654067228  WT01      2076            0.0000000000
      6305      2082  TIP3      OH2           -10.8014036479      -19.0208833435        8.4944659447  WT01      2077            0.0000000000
      6306      2082  TIP3      H1            -10.6261988471      -19.8120959798        7.9850371929  WT01      2077            0.0000000000
      6307      2082  TIP3      H2            -10.7044415802      -18.3048608097        7.8666587294  WT01      2077            0.0000000000
      6308      2083  TIP3      OH2           -18.1354766175        7.2845522919       10.6561635379  WT01      2078            0.0000000000
      6309      2083  TIP3      H1            -17.2804501968        7.0105879431       10.3243425523  WT01      2078            0.0000000000
      6310      2083  TIP3      H2            -18.0522107920        7.2298561255       11.6081650835  WT01      2078            0.0000000000
      6311      2084  TIP3      OH2           -10.3691288935        7.5775018094        5.4122366380  WT01      2079            0.0000000000
      6312      2084  TIP3      H1            -10.8301213842        8.2323275144        5.9365657624  WT01      2079            0.0000000000
      6313      2084  TIP3      H2             -9.6652606289        8.0649416143        4.9842136085  WT01      2079            0.0000000000
      6314      2085  TIP3      OH2            -3.9988757510       17.4312008759        8.2405035265  WT01      2080            0.0000000000
      6315      2085  TIP3      H1             -3.3988326872       17.0507472199        8.8819356338  WT01      2080            0.0000000000
      6316      2085  TIP3      H2             -3.5362805884       18.1991611422        7.9051312618  WT01      2080            0.0000000000
      6317      2086  TIP3      OH2           -17.7782643013       16.9396563538       -5.7967763103  WT01      2081            0.0000000000
      6318      2086  TIP3      H1            -17.4284646396       16.8576490248       -6.6839892530  WT01      2081            0.0000000000
      6319      2086  TIP3      H2            -17.6085689659       16.0888657868       -5.3923128197  WT01      2081            0.0000000000
      6320      2087  TIP3      OH2             9.5569429257       15.4125821850       15.2851062493  WT01      2082            0.0000000000
      6321      2087  TIP3      H1             10.2645366026       14.9391426257       15.7225968014  WT01      2082            0.0000000000
      6322      2087  TIP3      H2              8.7625095816       15.1278389259       15.7368016656  WT01      2082            0.0000000000
      6323      2088  TIP3      OH2            18.4811101853       17.3551852906        6.3198616658  WT01      2083            0.0000000000
      6324      2088  TIP3      H1             18.7814724562       16.4538736868        6.2030211331  WT01      2083            0.0000000000
      6325      2088  TIP3      H2             18.2959093227       17.6633347338        5.4327447782  WT01      2083            0.0000000000
      6326      2089  TIP3      OH2           -15.3015542106      -12.8742875062      -15.5270332082  WT01      2084            0.0000000000
      6327      2089  TIP3      H1            -15.0381809664      -11.9828757496      -15.2984475007  WT01      2084            0.0000000000
      6328      2089  TIP3      H2            -14.4984950945      -13.3892872354      -15.4489105735  WT01      2084            0.0000000000
      6329      2090  TIP3      OH2            14.1680779561       19.5894413215      -19.2276541604  WT01      2085            0.0000000000
      6330      2090  TIP3      H1             14.5343683597       19.7892594759      -20.0891272339  WT01      2085            0.0000000000
      6331      2090  TIP3      H2             13.9281312708       20.4422568560      -18.8652137331  WT01      2085            0.0000000000
      6332      2091  TIP3      OH2             6.2690298998       12.5069822946        7.5841325672  WT01      2086            0.0000000000
      6333      2091  TIP3      H1              6.9353021506       11.8647436222        7.8287600115  WT01      2086            0.0000000000
      6334      2091  TIP3      H2              6.6787581665       13.3549419158        7.7553606001  WT01      2086            0.0000000000
      6335      2092  TIP3      OH2             6.6508132694       12.9754831908       -2.9465779022  WT01      2087            0.0000000000
      6336      2092  TIP3      H1              7.1198525056       13.5239723922       -3.5753812116  WT01      2087            0.0000000000
      6337      2092  TIP3      H2              6.1466715600       12.3676460350       -3.4875094503  WT01      2087            0.0000000000
      6338      2093  TIP3      OH2           -17.9572034873       17.5293560611        7.1769597055  WT01      2088            0.0000000000
      6339      2093  TIP3      H1            -18.3530518292       16.8050274444        6.6923114244  WT01      2088            0.0000000000
      6340      2093  TIP3      H2            -18.1655324406       18.3069001958        6.6590253691  WT01      2088            0.0000000000
      6341      2094  TIP3      OH2             7.5796064488      -11.0061811097        3.3701355220  WT01      2089            0.0000000000
      6342      2094  TIP3      H1              6.9853789794      -11.4960224159        3.9386256455  WT01      2089            0.0000000000
      6343      2094  TIP3      H2              8.4080631226      -11.4829200615        3.4212366228  WT01      2089            0.0000000000
      6344      2095  TIP3      OH2            10.1436357937        8.2342549589       17.3839085713  WT01      2090            0.0000000000
      6345      2095  TIP3      H1             10.0435064099        9.1008276373       16.9898810206  WT01      2090            0.0000000000
      6346      2095  TIP3      H2             11.0877460907        8.1334288462       17.5052413914  WT01      2090            0.0000000000
      6347      2096  TIP3      OH2           -16.9974758827       15.1057153287       18.8580077370  WT01      2091            0.0000000000
      6348      2096  TIP3      H1            -16.7536219957       14.3595913778       19.4057906708  WT01      2091            0.0000000000
      6349      2096  TIP3      H2            -16.8238753289       15.8718601901       19.4049233705  WT01      2091            0.0000000000
      6350      2097  TIP3      OH2            17.0363330234       18.8269625562       -0.2153754544  WT01      2092            0.0000000000
      6351      2097  TIP3      H1             16.1603046242       18.9049031809        0.1624225258  WT01      2092            0.0000000000
      6352      2097  TIP3      H2             16.9367236121       18.1901127275       -0.9229996993  WT01      2092            0.0000000000
      6353      2098  TIP3      OH2            11.8921262016        9.8824670173        1.3808114498  WT01      2093            0.0000000000
      6354      2098  TIP3      H1             11.0159631621       10.1618237268        1.1152366615  WT01      2093            0.0000000000
      6355      2098  TIP3      H2             12.1499769915       10.5104280889        2.0556519300  WT01      2093            0.0000000000
      6356      2099  TIP3      OH2            19.4905716768       -0.8062230345       11.2484221526  WT01      2094            0.0000000000
      6357      2099  TIP3      H1             18.7724690285       -1.3435700676       10.9140293242  WT01      2094            0.0000000000
      6358      2099  TIP3      H2             19.0864103350        0.0388138998       11.4453942331  WT01      2094            0.0000000000
      6359      2100  TIP3      OH2            -6.1727915817       11.5389562273       15.3199177743  WT01      2095            0.0000000000
      6360      2100  TIP3      H1             -5.3981121144       11.4462917122       15.8744597669  WT01      2095            0.0000000000
      6361      2100  TIP3      H2             -6.8150128288       11.9794723986       15.8764509571  WT01      2095            0.0000000000
      6362      2101  TIP3      OH2           -15.7599176422       17.5007299067      -19.5649100579  WT01      2096            0.0000000000
      6363      2101  TIP3      H1            -16.1391669729       18.3072165328      -19.2156521615  WT01      2096            0.0000000000
      6364      2101  TIP3      H2            -14.8842135204       17.7540887174      -19.8567720377  WT01      2096            0.0000000000
      6365      2102  TIP3      OH2           -16.8547089302       16.4580852622        4.2458445835  WT01      2097            0.0000000000
      6366      2102  TIP3      H1            -16.7863042365       16.5163896026        3.2928738532  WT01      2097            0.0000000000
      6367      2102  TIP3      H2            -15.9650312582       16.6182754168        4.5605580488  WT01      2097            0.0000000000
      6368      2103  TIP3      OH2            -3.6189869616        2.9485769821      -15.4671441833  WT01      2098            0.0000000000
      6369      2103  TIP3      H1             -3.1928708271        2.1741063246      -15.8343662572  WT01      2098            0.0000000000
      6370      2103  TIP3      H2             -3.4718084680        2.8789143458      -14.5238958495  WT01      2098            0.0000000000
      6371      2104  TIP3      OH2            19.4080243162        0.0560903596        5.9298771232  WT01      2099            0.0000000000
      6372      2104  TIP3      H1             18.9355555551        0.7642050728        5.4921801576  WT01      2099            0.0000000000
      6373      2104  TIP3      H2             19.8477490649       -0.4131617637        5.2208803664  WT01      2099            0.0000000000
      6374      2105  TIP3      OH2            -2.7059684144       10.2809901742        0.1608780726  WT01      2100            0.0000000000
      6375      2105  TIP3      H1             -2.7619616414       11.0348774207       -0.4262765825  WT01      2100            0.0000000000
      6376      2105  TIP3      H2             -3.4328624688       10.3986103674        0.7724517271  WT01      2100            0.0000000000
      6377      2106  TIP3      OH2             0.3351216748       11.5441837557        6.9156526626  WT01      2101            0.0000000000
      6378      2106  TIP3      H1             -0.3180734766       11.6321834671        6.2215172607  WT01      2101            0.0000000000
      6379      2106  TIP3      H2              1.0318669431       11.0173947837        6.5241539767  WT01      2101            0.0000000000
      6380      2107  TIP3      OH2            10.3978746337        3.3505726653        3.4211768457  WT01      2102            0.0000000000
      6381      2107  TIP3      H1             10.4754495863        2.5758552123        2.8643763376  WT01      2102            0.0000000000
      6382      2107  TIP3      H2              9.7581569244        3.9045398830        2.9738364996  WT01      2102            0.0000000000
      6383      2108  TIP3      OH2            -5.2018376236       -7.1525645617      -13.0864743767  WT01      2103            0.0000000000
      6384      2108  TIP3      H1             -5.0269373296       -6.2315789847      -12.8930131014  WT01      2103            0.0000000000
      6385      2108  TIP3      H2             -5.9010985042       -7.3965743340      -12.4800708287  WT01      2103            0.0000000000
      6386      2109  TIP3      OH2            -2.7650555669       -0.3017710701       15.3096306917  WT01      2104            0.0000000000
      6387      2109  TIP3      H1             -3.2548308511        0.1054239860       16.0241544269  WT01      2104            0.0000000000
      6388      2109  TIP3      H2             -2.8235980702        0.3265794901       14.5899223064  WT01      2104            0.0000000000
      6389      2110  TIP3      OH2            11.4870825624       10.9523683137       -2.7920558244  WT01      2105            0.0000000000
      6390      2110  TIP3      H1             11.3900391283       11.9045801012       -2.8024044765  WT01      2105            0.0000000000
      6391      2110  TIP3      H2             11.3742641215       10.6896990772       -3.7055702921  WT01      2105            0.0000000000
      6392      2111  TIP3      OH2           -13.1868051850      -18.4907236703        1.7825793169  WT01      2106            0.0000000000
      6393      2111  TIP3      H1            -12.7454801526      -18.0624473719        1.0490648733  WT01      2106            0.0000000000
      6394      2111  TIP3      H2            -12.4773165463      -18.8704513182        2.3009079732  WT01      2106            0.0000000000
      6395      2112  TIP3      OH2             6.2476256645       17.5951641058       17.4116239169  WT01      2107            0.0000000000
      6396      2112  TIP3      H1              6.7315827724       16.9618278264       17.9416262621  WT01      2107            0.0000000000
      6397      2112  TIP3      H2              6.5061413505       18.4479326179       17.7611769400  WT01      2107            0.0000000000
      6398      2113  TIP3      OH2             5.3123280639        8.2790297590       -0.2421498678  WT01      2108            0.0000000000
      6399      2113  TIP3      H1              4.3910264000        8.4911186496       -0.0923054230  WT01      2108            0.0000000000
      6400      2113  TIP3      H2              5.2931847312        7.5545387082       -0.8674322530  WT01      2108            0.0000000000
      6401      2114  TIP3      OH2            15.3177813602       19.6906116002       -5.6355175610  WT01      2109            0.0000000000
      6402      2114  TIP3      H1             15.4244386095       19.2409023774       -6.4737404771  WT01      2109            0.0000000000
      6403      2114  TIP3      H2             15.3274572852       20.6211881999       -5.8594938534  WT01      2109            0.0000000000
      6404      2115  TIP3      OH2            15.8189810323        8.0366582614       16.5145101428  WT01      2110            0.0000000000
      6405      2115  TIP3      H1             16.0465590636        8.9104345937       16.1967760215  WT01      2110            0.0000000000
      6406      2115  TIP3      H2             16.0816004219        7.4480310391       15.8068514254  WT01      2110            0.0000000000
      6407      2116  TIP3      OH2            18.8327622890      -16.3912969900        5.0961787299  WT01      2111            0.0000000000
      6408      2116  TIP3      H1             19.5189901068      -15.9100315210        4.6338944650  WT01      2111            0.0000000000
      6409      2116  TIP3      H2             19.2852915991      -16.8111776210        5.8277177174  WT01      2111            0.0000000000
      6410      2117  TIP3      OH2           -16.2978265870      -19.8894747740        9.9722800660  WT01      2112            0.0000000000
      6411      2117  TIP3      H1            -16.7048127061      -20.3673583112       10.6949289675  WT01      2112            0.0000000000
      6412      2117  TIP3      H2            -15.5638263228      -20.4415588009        9.7026902844  WT01      2112            0.0000000000
      6413      2118  TIP3      OH2            18.8207556362        3.3831006772      -14.7455579793  WT01      2113            0.0000000000
      6414      2118  TIP3      H1             18.2772450787        3.1206285283      -15.4884822392  WT01      2113            0.0000000000
      6415      2118  TIP3      H2             19.0093404398        4.3085309341      -14.9012706074  WT01      2113            0.0000000000
      6416      2119  TIP3      OH2           -10.4214849411        9.4645989445      -13.9970116999  WT01      2114            0.0000000000
      6417      2119  TIP3      H1            -11.0151539325       10.0034796390      -13.4741383532  WT01      2114            0.0000000000
      6418      2119  TIP3      H2            -10.9453684258        9.1921514910      -14.7503710369  WT01      2114            0.0000000000
      6419      2120  SOD       SOD           -16.8800568312       10.1055680538       -7.3748926031  IONS      1               0.0000000000
      6420      2121  SOD       SOD             0.7172179349       -7.5070779851       19.7787680243  IONS      2               0.0000000000
      6421      2122  SOD       SOD           -15.6519861513       -3.7893007575      -17.9223981162  IONS      3               0.0000000000
      6422      2123  SOD       SOD             9.1880502633       10.8515736577      -15.1239794897  IONS      4               0.0000000000
      6423      2124  CLA       CLA             3.3627563898        9.8252066784      -11.6777309719  IONS      5               0.0000000000
      6424      2125  CLA       CLA           -17.7867716135       13.8019279645      -10.1457765651  IONS      6               0.0000000000
      6425      2126  CLA       CLA            10.1083787335       11.0770013042       15.9052369289  IONS      7               0.0000000000
